

     ************************************************************************
     *************** Dalton - An Electronic Structure Program ***************
     ************************************************************************

    This is output from DALTON release Dalton2018.2 (2019)
         ( Web site: http://daltonprogram.org )

   ----------------------------------------------------------------------------

    NOTE:
     
    Dalton is an experimental code for the evaluation of molecular
    properties using (MC)SCF, DFT, CI, and CC wave functions.
    The authors accept no responsibility for the performance of
    the code or for the correctness of the results.
     
    The code (in whole or part) is provided under a licence and
    is not to be reproduced for further distribution without
    the written permission of the authors or their representatives.
     
    See the home page "http://daltonprogram.org" for further information.
     
    If results obtained with this code are published,
    the appropriate citations would be both of:
     
       K. Aidas, C. Angeli, K. L. Bak, V. Bakken, R. Bast,
       L. Boman, O. Christiansen, R. Cimiraglia, S. Coriani,
       P. Dahle, E. K. Dalskov, U. Ekstroem,
       T. Enevoldsen, J. J. Eriksen, P. Ettenhuber, B. Fernandez,
       L. Ferrighi, H. Fliegl, L. Frediani, K. Hald, A. Halkier,
       C. Haettig, H. Heiberg, T. Helgaker, A. C. Hennum,
       H. Hettema, E. Hjertenaes, S. Hoest, I.-M. Hoeyvik,
       M. F. Iozzi, B. Jansik, H. J. Aa. Jensen, D. Jonsson,
       P. Joergensen, J. Kauczor, S. Kirpekar,
       T. Kjaergaard, W. Klopper, S. Knecht, R. Kobayashi, H. Koch,
       J. Kongsted, A. Krapp, K. Kristensen, A. Ligabue,
       O. B. Lutnaes, J. I. Melo, K. V. Mikkelsen, R. H. Myhre,
       C. Neiss, C. B. Nielsen, P. Norman, J. Olsen,
       J. M. H. Olsen, A. Osted, M. J. Packer, F. Pawlowski,
       T. B. Pedersen, P. F. Provasi, S. Reine, Z. Rinkevicius,
       T. A. Ruden, K. Ruud, V. Rybkin, P. Salek, C. C. M. Samson,
       A. Sanchez de Meras, T. Saue, S. P. A. Sauer,
       B. Schimmelpfennig, K. Sneskov, A. H. Steindal,
       K. O. Sylvester-Hvid, P. R. Taylor, A. M. Teale,
       E. I. Tellgren, D. P. Tew, A. J. Thorvaldsen, L. Thoegersen,
       O. Vahtras, M. A. Watson, D. J. D. Wilson, M. Ziolkowski
       and H. Agren,
       "The Dalton quantum chemistry program system",
       WIREs Comput. Mol. Sci. 2014, 4:269–284 (doi: 10.1002/wcms.1172)
     
    and
     
       Dalton, a molecular electronic structure program,
       Release Dalton2018.2 (2019), see http://daltonprogram.org
   ----------------------------------------------------------------------------

    Authors in alphabetical order (major contribution(s) in parenthesis):

  Kestutis Aidas,           Vilnius University,           Lithuania   (QM/MM)
  Celestino Angeli,         University of Ferrara,        Italy       (NEVPT2)
  Keld L. Bak,              UNI-C,                        Denmark     (AOSOPPA, non-adiabatic coupling, magnetic properties)
  Vebjoern Bakken,          University of Oslo,           Norway      (DALTON; geometry optimizer, symmetry detection)
  Radovan Bast,             UiT The Arctic U. of Norway,  Norway      (DALTON installation and execution frameworks)
  Pablo Baudin,             University of Valencia,       Spain       (Cholesky excitation energies)
  Linus Boman,              NTNU,                         Norway      (Cholesky decomposition and subsystems)
  Ove Christiansen,         Aarhus University,            Denmark     (CC module)
  Renzo Cimiraglia,         University of Ferrara,        Italy       (NEVPT2)
  Sonia Coriani,            Technical Univ. of Denmark,   Denmark     (CC module, MCD in RESPONS)
  Janusz Cukras,            University of Trieste,        Italy       (MChD in RESPONS)
  Paal Dahle,               University of Oslo,           Norway      (Parallelization)
  Erik K. Dalskov,          UNI-C,                        Denmark     (SOPPA)
  Thomas Enevoldsen,        Univ. of Southern Denmark,    Denmark     (SOPPA)
  Janus J. Eriksen,         Aarhus University,            Denmark     (Polarizable embedding model, TDA)
  Rasmus Faber,             University of Copenhagen,     Denmark     (Vib.avg. NMR with SOPPA, parallel AO-SOPPA)
  Tobias Fahleson,          KTH Stockholm,                Sweden      (Damped cubic response)
  Berta Fernandez,          U. of Santiago de Compostela, Spain       (doublet spin, ESR in RESPONS)
  Lara Ferrighi,            Aarhus University,            Denmark     (PCM Cubic response)
  Heike Fliegl,             University of Oslo,           Norway      (CCSD(R12))
  Luca Frediani,            UiT The Arctic U. of Norway,  Norway      (PCM)
  Bin Gao,                  UiT The Arctic U. of Norway,  Norway      (Gen1Int library)
  Christof Haettig,         Ruhr-University Bochum,       Germany     (CC module)
  Kasper Hald,              Aarhus University,            Denmark     (CC module)
  Asger Halkier,            Aarhus University,            Denmark     (CC module)
  Frederik Beyer Hansen,    University of Copenhagen,     Denmark     (Parallel AO-SOPPA)
  Erik D. Hedegaard,        Univ. of Southern Denmark,    Denmark     (Polarizable embedding model, QM/MM)
  Hanne Heiberg,            University of Oslo,           Norway      (geometry analysis, selected one-electron integrals)
  Trygve Helgaker,          University of Oslo,           Norway      (DALTON; ABACUS, ERI, DFT modules, London, and much more)
  Alf Christian Hennum,     University of Oslo,           Norway      (Parity violation)
  Hinne Hettema,            University of Auckland,       New Zealand (quadratic response in RESPONS; SIRIUS supersymmetry)
  Eirik Hjertenaes,         NTNU,                         Norway      (Cholesky decomposition)
  Pi A. B. Haase,           University of Copenhagen,     Denmark     (Triplet AO-SOPPA)
  Maria Francesca Iozzi,    University of Oslo,           Norway      (RPA)
  Christoph Jacob           TU Braunschweig               Germany     (Frozen density embedding model)
  Brano Jansik              Technical Univ. of Ostrava    Czech Rep.  (DFT cubic response)
  Hans Joergen Aa. Jensen,  Univ. of Southern Denmark,    Denmark     (DALTON; SIRIUS, RESPONS, ABACUS modules, London, and much more)
  Dan Jonsson,              UiT The Arctic U. of Norway,  Norway      (cubic response in RESPONS module)
  Poul Joergensen,          Aarhus University,            Denmark     (RESPONS, ABACUS, and CC modules)
  Maciej Kaminski,          University of Warsaw,         Poland      (CPPh in RESPONS)
  Joanna Kauczor,           Linkoeping University,        Sweden      (Complex polarization propagator (CPP) module)
  Sheela Kirpekar,          Univ. of Southern Denmark,    Denmark     (Mass-velocity & Darwin integrals)
  Wim Klopper,              KIT Karlsruhe,                Germany     (R12 code in CC, SIRIUS, and ABACUS modules)
  Stefan Knecht,            ETH Zurich,                   Switzerland (Parallel CI and MCSCF)
  Rika Kobayashi,           Australian National Univ.,    Australia   (DIIS in CC, London in MCSCF)
  Henrik Koch,              NTNU,                         Norway      (CC module, Cholesky decomposition)
  Jacob Kongsted,           Univ. of Southern Denmark,    Denmark     (Polarizable embedding model, QM/MM)
  Andrea Ligabue,           University of Modena,         Italy       (CTOCD, AOSOPPA)
  Nanna H. List             Univ. of Southern Denmark,    Denmark     (Polarizable embedding model)
  Ola B. Lutnaes,           University of Oslo,           Norway      (DFT Hessian)
  Juan I. Melo,             University of Buenos Aires,   Argentina   (LRESC, Relativistic Effects on NMR Shieldings)
  Kurt V. Mikkelsen,        University of Copenhagen,     Denmark     (MC-SCRF and QM/MM)
  Rolf H. Myhre,            NTNU,                         Norway      (Subsystems and CC3)
  Christian Neiss,          Univ. Erlangen-Nuernberg,     Germany     (CCSD(R12))
  Christian B. Nielsen,     University of Copenhagen,     Denmark     (QM/MM)
  Patrick Norman,           KTH Stockholm,                Sweden      (Cubic response and complex frequency response in RESPONS)
  Jeppe Olsen,              Aarhus University,            Denmark     (SIRIUS CI/density modules)
  Jogvan Magnus H. Olsen,   Univ. of Southern Denmark,    Denmark     (Polarizable embedding model, QM/MM)
  Anders Osted,             Copenhagen University,        Denmark     (QM/MM)
  Martin J. Packer,         University of Sheffield,      UK          (SOPPA)
  Filip Pawlowski,          Kazimierz Wielki University,  Poland      (CC3)
  Morten N. Pedersen,       Univ. of Southern Denmark,    Denmark     (Polarizable embedding model)
  Thomas B. Pedersen,       University of Oslo,           Norway      (Cholesky decomposition)
  Patricio F. Provasi,      University of Northeastern,   Argentina   (Analysis of coupling constants in localized orbitals)
  Zilvinas Rinkevicius,     KTH Stockholm,                Sweden      (open-shell DFT, ESR)
  Elias Rudberg,            KTH Stockholm,                Sweden      (DFT grid and basis info)
  Torgeir A. Ruden,         University of Oslo,           Norway      (Numerical derivatives in ABACUS)
  Kenneth Ruud,             UiT The Arctic U. of Norway,  Norway      (DALTON; ABACUS magnetic properties and much more)
  Pawel Salek,              KTH Stockholm,                Sweden      (DALTON; DFT code)
  Claire C. M. Samson       University of Karlsruhe       Germany     (Boys localization, r12 integrals in ERI)
  Alfredo Sanchez de Meras, University of Valencia,       Spain       (CC module, Cholesky decomposition)
  Trond Saue,               Paul Sabatier University,     France      (direct Fock matrix construction)
  Stephan P. A. Sauer,      University of Copenhagen,     Denmark     (SOPPA(CCSD), SOPPA prop., AOSOPPA, vibrational g-factors)
  Andre S. P. Gomes,        CNRS/Universite de Lille,     France      (Frozen density embedding model)
  Bernd Schimmelpfennig,    Forschungszentrum Karlsruhe,  Germany     (AMFI module)
  Kristian Sneskov,         Aarhus University,            Denmark     (Polarizable embedding model, QM/MM)
  Arnfinn H. Steindal,      UiT The Arctic U. of Norway,  Norway      (parallel QM/MM, Polarizable embedding model)
  Casper Steinmann,         Univ. of Southern Denmark,    Denmark     (QFIT, Polarizable embedding model)
  K. O. Sylvester-Hvid,     University of Copenhagen,     Denmark     (MC-SCRF)
  Peter R. Taylor,          VLSCI/Univ. of Melbourne,     Australia   (Symmetry handling ABACUS, integral transformation)
  Andrew M. Teale,          University of Nottingham,     England     (DFT-AC, DFT-D)
  David P. Tew,             University of Bristol,        England     (CCSD(R12))
  Olav Vahtras,             KTH Stockholm,                Sweden      (triplet response, spin-orbit, ESR, TDDFT, open-shell DFT)
  Lucas Visscher,           Vrije Universiteit Amsterdam, Netherlands (Frozen density embedding model)
  David J. Wilson,          La Trobe University,          Australia   (DFT Hessian and DFT magnetizabilities)
  Hans Agren,               KTH Stockholm,                Sweden      (SIRIUS module, RESPONS, MC-SCRF solvation model)
 --------------------------------------------------------------------------------

     Date and time (Linux)  : Tue Feb 22 09:03:27 2022
     Host name              : xlr178node057.psmn.ens-lyon.fr          

 * Work memory size             :    64000000 =  488.28 megabytes.

 * Directories for basis set searches:
   1) /home/glebreto/Software/Frog/Doc/Tutorial_files/Optical_analysis_overview/Submission_script
   2) /applis/PSMN/debian9/software/Local/Dalton/2018.2/full-debian9/basis


Compilation information
-----------------------

 Who compiled             | ccalugar
 Host                     | e5-2670comp1.psmn.ens-lyon.fr
 System                   | Linux-4.9.0-8-amd64
 CMake generator          | Unix Makefiles
 Processor                | x86_64
 64-bit integers          | OFF
 MPI                      | ON
 Fortran compiler         | /usr/bin/mpif90
 Fortran compiler version | GNU Fortran (Debian 6.3.0-18+deb9u1) 6.3.0 2017051
                          | 6
 C compiler               | /usr/bin/mpicc
 C compiler version       | gcc (Debian 6.3.0-18+deb9u1) 6.3.0 20170516
 C++ compiler             | /usr/bin/mpicxx
 C++ compiler version     | unknown
 BLAS                     | /usr/lib/libopenblas.so
 LAPACK                   | /usr/lib/liblapack.so
 Static linking           | OFF
 Last Git revision        | 4aa945ecd235fbf67ed0c1609617c553ef40be89
 Git branch               | (HEAD detached at Dalton2018.2)
 Configuration time       | 2019-03-20 08:31:43.879829

 * Sequential calculation.


   Content of the .dal input file
 ----------------------------------

**DALTON
.RUN WAVE FUNCTIONS
.RUN PROPERTIES
.RUN RESPONSE
.PEQM
*PEQM
**WAVE FUNCTIONS
.DFT
Camb3lyp
*SCF IN
.MAX DIIS
500
**RESPONSE
*QUADRA
.DIPLEN
.SHG
.FREQUE
2
0.0 0.05686
**END OF DALTON


   Content of the .mol file
 ----------------------------

BASIS
d-aug-cc-pVTZ
Laboratory frame
Nothing
Atomtypes=2 Angstrom Nosymmetry
Charge=8 Atoms=1
O -0.077726364 0.13344407 -0.0072402954
Charge=1 Atoms=2
H 0.79185677 -0.057883978 -0.3585968
H -0.3581934 -0.68664455 0.39899445


       *******************************************************************
       *********** Output from DALTON general input processing ***********
       *******************************************************************

 --------------------------------------------------------------------------------
   Overall default print level:    0
   Print level for DALTON.STAT:    1

    HERMIT 1- and 2-electron integral sections will be executed
    "Old" integral transformation used (limited to max 255 basis functions)
    Wave function sections will be executed (SIRIUS module)
    Dynamic molecular response properties section will be executed (RESPONSE module)
    Static molecular property section will be executed (ABACUS module)
    Environment is modeled using polarizable embedding scheme (PE library)
 --------------------------------------------------------------------------------


   ****************************************************************************
   *************** Output of molecule and basis set information ***************
   ****************************************************************************


    The two title cards from your ".mol" input:
    ------------------------------------------------------------------------
 1: Laboratory frame                                                        
 2: Nothing                                                                 
    ------------------------------------------------------------------------

  Coordinates are entered in Angstrom and converted to atomic units.
          - Conversion factor : 1 bohr = 0.52917721 A

  Atomic type no.    1
  --------------------
  Nuclear charge:   8.00000
  Number of symmetry independent centers:    1
  Number of basis sets to read;    2
  Basis set file used for this atomic type with Z =   8 :
     "/applis/PSMN/debian9/software/Local/Dalton/2018.2/full-debian9/basis/aug-cc-pVTZ"

  Atomic type no.    2
  --------------------
  Nuclear charge:   1.00000
  Number of symmetry independent centers:    2
  Number of basis sets to read;    2
  Basis set file used for this atomic type with Z =   1 :
     "/applis/PSMN/debian9/software/Local/Dalton/2018.2/full-debian9/basis/aug-cc-pVTZ"


                         SYMGRP: Point group information
                         -------------------------------

@    Point group: C1 


                                 Isotopic Masses
                                 ---------------

                           O          15.994915
                           H           1.007825
                           H           1.007825

                       Total mass:    18.010565 amu
                       Natural abundance:  99.730 %

 Center-of-mass coordinates (a.u.):   -0.084586    0.145221   -0.007879


  Atoms and basis sets
  --------------------

  Number of atom types :    2
  Total number of atoms:    3

  Basis set used is "d-aug-cc-pVTZ" from the basis set library.

  label    atoms   charge   prim   cont     basis
  ----------------------------------------------------------------------
  O           1    8.0000    74    62      [12s7p4d3f|6s5p4d3f]                               
  H           2    1.0000    34    32      [7s4p3d|5s4p3d]                                    
  ----------------------------------------------------------------------
  total:      3   10.0000   142   126
  ----------------------------------------------------------------------
  Spherical harmonic basis used.

  Threshold for neglecting AO integrals:  1.00D-12


  Cartesian Coordinates (a.u.)
  ----------------------------

  Total number of coordinates:    9
  O       :     1  x  -0.1468815407    2  y   0.2521727453    3  z  -0.0136821754
  H       :     4  x   1.4963924255    5  y  -0.1093848654    6  z  -0.6776497413
  H       :     7  x  -0.6768874258    8  y  -1.2975701447    9  z   0.7539902359


   Interatomic separations (in Angstrom):
   --------------------------------------

            O           H           H     
            ------      ------      ------
 O     :    0.000000
 H     :    0.957200    0.000000
 H     :    0.957201    1.513902    0.000000


  Max    interatomic separation is    1.5139 Angstrom (    2.8609 Bohr)
  between atoms    3 and    2, "H     " and "H     ".

  Min HX interatomic separation is    0.9572 Angstrom (    1.8088 Bohr)


  Bond distances (Angstrom):
  --------------------------

                  atom 1     atom 2       distance
                  ------     ------       --------
  bond distance:  H          O            0.957200
  bond distance:  H          O            0.957201


  Bond angles (degrees):
  ----------------------

                  atom 1     atom 2     atom 3         angle
                  ------     ------     ------         -----
  bond angle:     H          O          H            104.520




 Principal moments of inertia (u*A**2) and principal axes
 --------------------------------------------------------

   IA       0.614456          0.759659    0.415325   -0.500423
   IB       1.154917         -0.502761    0.863156   -0.046833
   IC       1.769373          0.412492    0.287170    0.864513


 Rotational constants
 --------------------

@    The molecule is planar.

               A                   B                   C

         822482.1227         437589.0518         285626.0658 MHz
           27.435051           14.596400            9.527460 cm-1


@  Nuclear repulsion energy :    9.194957907207 Hartree

  Reading potential input file for polarizable embedding calculation

    .------------------------------------------------.
    | Information from polarizable embedding library |
    `------------------------------------------------´

      Number of classical sites:    564

      Multipole moments upto 0th order.
      Total charge of classical region:    0.0000
 


                     .---------------------------------------.
                     | Starting in Integral Section (HERMIT) |
                     `---------------------------------------'



 ***************************************************************************************
 ****************** Output from **INTEGRALS input processing (HERMIT) ******************
 ***************************************************************************************


 - Using defaults, no **INTEGRALS input found

 Default print level:        1

 Calculation of one- and two-electron Hamiltonian integrals.

 Center of mass  (bohr):     -0.084585915624      0.145221273921     -0.007879118345
 Operator center (bohr):      0.000000000000      0.000000000000      0.000000000000
 Gauge origin    (bohr):      0.000000000000      0.000000000000      0.000000000000
 Dipole origin   (bohr):      0.000000000000      0.000000000000      0.000000000000


     ************************************************************************
     ************************** Output from HERINT **************************
     ************************************************************************



                      Nuclear contribution to dipole moments
                      --------------------------------------

                 au               Debye          C m (/(10**-30)

      x     -0.35554733        -0.90371110        -3.01445576
      y      0.61042695         1.55155045         5.17541523
      z     -0.03311691        -0.08417478        -0.28077684



 Threshold for neglecting two-electron integrals:  1.00D-12
 HERMIT - Number of two-electron integrals written:    30041570 ( 93.8% )
 HERMIT - Megabytes written:                            343.994

  Time used in TWOINT     is       3.40 seconds
  Total CPU  time used in HERMIT:   3.48 seconds
  Total wall time used in HERMIT: 13 minutes 50 seconds


                        .----------------------------------.
                        | End of Integral Section (HERMIT) |
                        `----------------------------------'



                   .--------------------------------------------.
                   | Starting in Wave Function Section (SIRIUS) |
                   `--------------------------------------------'


INFO: switched to AO-direct Fock matrices because long-range corrected models as CAM-B3LYP will not work otherwise.

 *** Output from Huckel module :

     Using EWMO model:          T
     Using EHT  model:          F
     Number of Huckel orbitals each symmetry:    7

 EWMO - Energy Weighted Maximum Overlap - is a Huckel type method,
        which normally is better than Extended Huckel Theory.
 Reference: Linderberg and Ohrn, Propagators in Quantum Chemistry (Wiley, 1973)

 Huckel EWMO eigenvalues for symmetry :  1
          -20.684968      -1.611698      -0.778263      -0.688371      -0.616200
           -0.232269      -0.168130

 **********************************************************************
 *SIRIUS* a direct, restricted step, second order MCSCF program       *
 **********************************************************************

 
     Date and time (Linux)  : Tue Feb 22 09:29:02 2022
     Host name              : xlr178node057.psmn.ens-lyon.fr          

 Title lines from ".mol" input file:
     Laboratory frame                                                        
     Nothing                                                                 

 Print level on unit LUPRI =   2 is   0
 Print level on unit LUW4  =   2 is   5

@    Restricted, closed shell Kohn-Sham DFT calculation.

@    Time-dependent Kohn-Sham DFT calculation (TD-DFT).
 Fock matrices are calculated directly without use of integrals on disk.

 Initial molecular orbitals are obtained according to
 ".MOSTART EWMO  " input option

@    QM part is embedded in an environment :

@         Model: PE

     Wave function specification
     ============================

     Wave function environment is modeled using the
     polarizable embedding model (PE library).

@    Wave function type        --- PE-KS-DFT ---
@    Number of closed shell electrons          10
@    Number of electrons in active shells       0
@    Total charge of the molecule               0

@    Spin multiplicity and 2 M_S                1         0
@    Total number of symmetries                 1 (point group: C1 )
@    Reference state symmetry                   1 (irrep name : A  )
 
     This is a DFT calculation of type: Camb3lyp
 CAM-B3LYP w/ alpha=0.190 beta=0.460 mu=0.330 VwnWeight=0.190 LypWeight=0.810

     Orbital specifications
     ======================
@    Abelian symmetry species          All |    1
@                                          |  A  
                                       --- |  ---
@    Occupied SCF orbitals               5 |    5
@    Secondary orbitals                121 |  121
@    Total number of orbitals          126 |  126
@    Number of basis functions         126 |  126

     Optimization information
     ========================
@    Number of configurations                 1
@    Number of orbital rotations            605
     ------------------------------------------
@    Total number of variables              606

     Maximum number of Fock   iterations      0
     Maximum number of DIIS   iterations    500
     Maximum number of QC-SCF iterations     60
     Threshold for SCF convergence     1.00D-05
 
     This is a DFT calculation of type: Camb3lyp
 CAM-B3LYP w/ alpha=0.190 beta=0.460 mu=0.330 VwnWeight=0.190 LypWeight=0.810


 ***********************************************
 ***** DIIS acceleration of SCF iterations *****
 ***********************************************

 C1-DIIS algorithm; max error vectors =    8

 Iter      Total energy     Embedding energy      Error norm     Delta(E)
 -----------------------------------------------------------------------------

***  INFO  GETGAB: GABAOXXX not found on AOPROPER. Regenerating.
   1  Screening settings (-IFTHRS, JTDIIS, DIFDEN, times)   -8    1    F  7.14D+00  8.65D+01
      K-S energy, electrons, error :     -6.786412395342   9.9999997408   -2.59D-07
@  1  -76.2978772848     -3.736294552990E-02    1.79178D+00   -7.63D+01
      Virial theorem: -V/T =      2.002201
@    MULPOP   O      -0.62; H       0.31; H       0.31; 
   1  Level shift: doubly occupied orbital energies shifted by -2.00D-01
 -----------------------------------------------------------------------------
   2  Screening settings (-IFTHRS, JTDIIS, DIFDEN, times)   -8    2    F  1.18D+01  1.19D+01
      K-S energy, electrons, error :     -6.816901346430   9.9999997532   -2.47D-07
@  2  -76.4634943788     -3.309918087515E-02    4.51158D-01   -1.66D-01
      Virial theorem: -V/T =      2.006645
@    MULPOP   O      -0.45; H       0.20; H       0.24; 
   2  Level shift: doubly occupied orbital energies shifted by -1.00D-01
 -----------------------------------------------------------------------------
   3  Screening settings (-IFTHRS, JTDIIS, DIFDEN, times)   -9    3    F  1.20D+01  1.20D+01
      K-S energy, electrons, error :     -6.822300941639   9.9999997538   -2.46D-07
@  3  -76.4723729040     -3.901707595935E-02    6.61745D-02   -8.88D-03
      Virial theorem: -V/T =      2.005654
@    MULPOP   O      -0.36; H       0.15; H       0.21; 
   3  Level shift: doubly occupied orbital energies shifted by -2.50D-02
 -----------------------------------------------------------------------------
   4  Screening settings (-IFTHRS, JTDIIS, DIFDEN, times)  -10    4    F  1.20D+01  1.20D+01
      K-S energy, electrons, error :     -6.811463798413   9.9999997519   -2.48D-07
@  4  -76.4730151976     -3.975980139590E-02    4.08319D-02   -6.42D-04
      Virial theorem: -V/T =      2.006796
@    MULPOP   O      -0.34; H       0.14; H       0.20; 
   4  Level shift: doubly occupied orbital energies shifted by -2.50D-02
 -----------------------------------------------------------------------------
   5  Screening settings (-IFTHRS, JTDIIS, DIFDEN, times)  -10    5    F  1.15D+01  1.15D+01
      K-S energy, electrons, error :     -6.819320940827   9.9999997525   -2.48D-07
@  5  -76.4730884201     -4.014249309867E-02    1.33377D-02   -7.32D-05
      Virial theorem: -V/T =      2.005834
@    MULPOP   O      -0.35; H       0.15; H       0.20; 
   5  Level shift: doubly occupied orbital energies shifted by -1.25D-02
 -----------------------------------------------------------------------------
   6  Screening settings (-IFTHRS, JTDIIS, DIFDEN, times)  -11    6    F  1.29D+01  1.29D+01
      K-S energy, electrons, error :     -6.817350964590   9.9999997521   -2.48D-07
@  6  -76.4731005596     -4.020165592894E-02    1.11015D-03   -1.21D-05
      Virial theorem: -V/T =      2.006075
@    MULPOP   O      -0.34; H       0.14; H       0.20; 
 -----------------------------------------------------------------------------
   7  Screening settings (-IFTHRS, JTDIIS, DIFDEN, times)  -12    7    F  1.29D+01  1.29D+01
      K-S energy, electrons, error :     -6.817208023776   9.9999997520   -2.48D-07
@  7  -76.4731008081     -4.021156794683E-02    1.12911D-04   -2.49D-07
      Virial theorem: -V/T =      2.006091
@    MULPOP   O      -0.34; H       0.14; H       0.20; 
 -----------------------------------------------------------------------------
   8  Screening settings (-IFTHRS, JTDIIS, DIFDEN, times)  -12    8    F  1.27D+01  1.27D+01
      K-S energy, electrons, error :     -6.817215108005   9.9999997520   -2.48D-07
@  8  -76.4731008106     -4.021249578580E-02    1.38576D-05   -2.46D-09
      Virial theorem: -V/T =      2.006090
@    MULPOP   O      -0.34; H       0.14; H       0.20; 
 -----------------------------------------------------------------------------
   9  Screening settings (-IFTHRS, JTDIIS, DIFDEN, times)  -12    9    F  1.25D+01  1.25D+01
      K-S energy, electrons, error :     -6.817214037225   9.9999997520   -2.48D-07
@  9  -76.4731008106     -4.021242199731E-02    3.34999D-06   -2.69D-11

@ *** DIIS converged in   9 iterations !
@     Converged SCF energy, gradient:    -76.473100810589    3.35D-06
    - total time used in SIRFCK :              0.00 seconds


 *** SCF orbital energy analysis ***
   (incl. contribution from polarizable embedding potential)

 Only the 20 lowest virtual orbital energies printed in each symmetry.

 Number of electrons :   10
 Orbital occupations :    5

 Sym       Kohn-Sham orbital energies

1 A     -19.20569031    -1.09629119    -0.60053714    -0.47669514    -0.39230104
          0.01801311     0.02922027     0.04211478     0.05267448     0.05623453
          0.06121353     0.08302054     0.08974436     0.09550901     0.09786700
          0.10230527     0.10780712     0.12186073     0.12395869     0.16629013
          0.17729075     0.18679227     0.19800152     0.20710213     0.21222839

    E(LUMO) :     0.01801311 au (symmetry 1)
  - E(HOMO) :    -0.39230104 au (symmetry 1)
  ------------------------------------------
    gap     :     0.41031415 au

    .--------------------------------------------------.
    | Final results from polarizable embedding library |
    `--------------------------------------------------´

        Polarizable embedding energy contributions:
       ---------------------------------------------

       Electrostatic contributions:
            Electronic                -0.062486205156
            Nuclear                    0.022273783158
            Multipole                -93.056136024402
            Total                    -93.096348446400

       Total PE energy:               -0.040212421997
            (excl. multipole-multipole interaction energy)

 --- Writing SIRIFC interface file

 CPU and wall time for SCF :     132.776     242.966


                       .-----------------------------------.
                       | --- Final results from SIRIUS --- |
                       `-----------------------------------'


@    Spin multiplicity:           1
@    Spatial symmetry:            1 ( irrep  A   in C1  )
@    Total charge of molecule:    0

@    Final DFT energy:            -76.473100810589                 
@    Nuclear repulsion:             9.194957907207
@    Electronic energy:           -85.627846295798
@    Embedding energy:             -0.040212421997

@    Final gradient norm:           0.000003349989

 
     Date and time (Linux)  : Tue Feb 22 09:33:10 2022
     Host name              : xlr178node057.psmn.ens-lyon.fr          

File label for MO orbitals:  22Feb22   FOCKDIIS

 (Only coefficients > 0.0100 are printed.)

 Molecular orbitals for symmetry species 1  (A  )
 ------------------------------------------------

    Orbital         1        2        3        4        5        6        7
   1 O   :1s    -0.9964   0.0211   0.0002  -0.0017   0.0000   0.0001   0.0001
   2 O   :1s    -0.0003  -0.8339   0.0025   0.2952  -0.0076  -0.1450  -0.0572
   4 O   :1s    -0.0055   0.0399   0.0205   0.1664  -0.0009   0.0459   0.2823
   5 O   :1s    -0.0035  -0.0563   0.0291   0.0873   0.0420   0.5123   1.5965
   6 O   :1s    -0.0032  -0.0526   0.0251  -0.0281   0.0290  -1.0700   6.5488
   7 O   :2px   -0.0017  -0.0814  -0.5941  -0.4232   0.4005  -0.0454  -0.0023
   8 O   :2py    0.0028   0.1348  -0.3368   0.7232   0.2617   0.0753   0.0411
   9 O   :2pz   -0.0002  -0.0076   0.3991  -0.0245   0.8133  -0.0076  -0.0225
  10 O   :2px    0.0001   0.0032   0.0447   0.0245  -0.0142  -0.0035   0.0130
  11 O   :2py   -0.0001  -0.0044   0.0246  -0.0400  -0.0090  -0.0134  -0.0105
  12 O   :2pz    0.0000   0.0003  -0.0293   0.0018  -0.0294   0.0023  -0.0040
  13 O   :2px    0.0013   0.0224   0.1214   0.0232   0.0076   0.0183   0.2944
  14 O   :2py   -0.0021  -0.0450   0.0537  -0.0582   0.0012  -0.0923   0.0431
  15 O   :2pz    0.0001   0.0075  -0.0706   0.0196  -0.0015  -0.0835  -0.1762
  16 O   :2px    0.0008   0.0019   0.0078  -0.0033   0.0319  -0.0769   0.8039
  17 O   :2py   -0.0013  -0.0011   0.0003  -0.0063   0.0103  -0.4333   0.2701
  18 O   :2pz    0.0001   0.0025  -0.0007   0.0121   0.0503   0.0416  -0.4120
  19 O   :2px    0.0000  -0.0003  -0.0012  -0.0035   0.0027  -0.5079   1.7282
  20 O   :2py   -0.0001   0.0016  -0.0012  -0.0046   0.0012  -0.5397   0.7135
  21 O   :2pz    0.0000   0.0000   0.0018   0.0050   0.0033  -0.0035  -0.9775
  27 O   :3d2-   0.0001   0.0020   0.0044   0.0120  -0.0032   0.0034  -0.0057
  31 O   :3d2+   0.0001   0.0009  -0.0079   0.0071   0.0063  -0.0009   0.0121
  32 O   :3d2-   0.0001   0.0043  -0.0103  -0.0028   0.0010   0.0248  -0.0418
  33 O   :3d1-  -0.0007  -0.0051   0.0116  -0.0136   0.0064  -0.0122   0.0355
  34 O   :3d0   -0.0007  -0.0034  -0.0025  -0.0137   0.0035  -0.0103   0.0028
  35 O   :3d1+  -0.0011  -0.0049  -0.0072  -0.0088  -0.0028  -0.0667  -0.0500
  36 O   :3d2+   0.0002   0.0016   0.0225  -0.0166   0.0017  -0.0002   0.0741
  37 O   :3d2-  -0.0003  -0.0005   0.0016  -0.0105  -0.0018   0.0052  -0.0504
  38 O   :3d1-   0.0000  -0.0016  -0.0019   0.0090   0.0045  -0.0555   0.0365
  39 O   :3d0   -0.0001  -0.0013  -0.0002   0.0036   0.0010   0.0620   0.0124
  40 O   :3d1+   0.0001   0.0021  -0.0022  -0.0098  -0.0040  -0.1402  -0.1222
  41 O   :3d2+  -0.0002  -0.0037  -0.0025   0.0146   0.0023   0.0245   0.1323
  56 O   :4f3-  -0.0000   0.0023   0.0003  -0.0110   0.0007  -0.0094  -0.0137
  57 O   :4f2-   0.0001  -0.0006  -0.0007   0.0077  -0.0010   0.0239   0.0087
  59 O   :4f0   -0.0000  -0.0011   0.0038   0.0071   0.0042  -0.0001   0.0179
  62 O   :4f3+   0.0002   0.0001   0.0012   0.0074  -0.0005   0.0208   0.0023
  63 H   :1s    -0.0035  -0.3951  -0.6036  -0.3690   0.0079   0.0408   0.0271
  64 H   :1s     0.0022   0.1117   0.0475   0.0227  -0.0106  -0.1029  -0.2554
  65 H   :1s     0.0040   0.1723   0.1784   0.0894  -0.0421  -0.2192  -1.2741
  66 H   :1s     0.0020   0.0289   0.0509   0.0557  -0.0327   4.9607  -6.5002
  67 H   :1s     0.0000   0.0002   0.0021   0.0046  -0.0009   1.6496  -6.8748
  68 H   :2px   -0.0002   0.0130   0.0151   0.0075   0.0046   0.0045   0.0024
  71 H   :2px   -0.0020   0.0115   0.0312   0.0195   0.0148   0.0372   0.0816
  72 H   :2py    0.0003  -0.0032  -0.0182   0.0203   0.0082  -0.0154  -0.0301
  73 H   :2pz    0.0008  -0.0049  -0.0103  -0.0165   0.0275   0.0213  -0.0175
  74 H   :2px   -0.0023  -0.0123  -0.0141  -0.0291   0.0085  -0.0059   0.2388
  75 H   :2py    0.0010   0.0004  -0.0069   0.0433   0.0082   0.0014  -0.1607
  76 H   :2pz    0.0008   0.0028   0.0030   0.0013   0.0164   0.1377   0.0390
  77 H   :2px   -0.0008  -0.0069  -0.0136  -0.0128   0.0026  -0.6685   0.8645
  78 H   :2py    0.0002   0.0012  -0.0021   0.0061  -0.0035   0.0207  -0.7604
  79 H   :2pz    0.0003   0.0023   0.0044   0.0001  -0.0071   0.5298   0.0738
  85 H   :3d2-  -0.0003  -0.0009   0.0016  -0.0041  -0.0036   0.0053   0.0193
  87 H   :3d0   -0.0002  -0.0011  -0.0029  -0.0010   0.0063   0.0192   0.0103
  88 H   :3d1+  -0.0003   0.0003   0.0037   0.0051  -0.0052  -0.0406  -0.0091
  89 H   :3d2+   0.0005   0.0033   0.0066   0.0043  -0.0040  -0.0126  -0.0111
  90 H   :3d2-  -0.0001   0.0007   0.0011  -0.0079   0.0005  -0.0566   0.0267
  91 H   :3d1-  -0.0000  -0.0003   0.0013   0.0004  -0.0021   0.0713  -0.0284
  92 H   :3d0   -0.0002  -0.0003  -0.0001  -0.0095   0.0003  -0.0574   0.0615
  93 H   :3d1+  -0.0004  -0.0019  -0.0012   0.0002  -0.0010  -0.0590  -0.0030
  94 H   :3d2+   0.0003   0.0030   0.0083  -0.0012  -0.0025  -0.0579  -0.0448
  95 H   :1s    -0.0035  -0.3926   0.6103  -0.3421  -0.0009   0.0461   0.0128
  96 H   :1s     0.0023   0.1047  -0.0681  -0.0016   0.0057  -0.1056   0.1099
  97 H   :1s     0.0042   0.1612  -0.2150   0.0945  -0.0001  -0.5109   0.0952
  98 H   :1s     0.0022   0.0353  -0.0802  -0.0241   0.0010  -3.5646   0.2985
  99 H   :1s     0.0000   0.0008  -0.0027  -0.0031   0.0002  -0.9003   6.1839
 101 H   :2py    0.0002  -0.0119   0.0166  -0.0030   0.0031  -0.0031  -0.0001
 103 H   :2px    0.0007  -0.0055   0.0024  -0.0172   0.0127  -0.0099  -0.0156
 104 H   :2py    0.0018  -0.0103   0.0336  -0.0128   0.0079  -0.0520  -0.0078
 105 H   :2pz   -0.0010   0.0059  -0.0108   0.0115   0.0232   0.0366   0.0095
 106 H   :2px    0.0004  -0.0005  -0.0109   0.0006   0.0159   0.0862  -0.1050
 107 H   :2py    0.0025   0.0143  -0.0142   0.0169   0.0094   0.0087  -0.1125
 108 H   :2pz   -0.0010  -0.0063   0.0147  -0.0130   0.0203  -0.0773  -0.0247
 109 H   :2px    0.0002   0.0020  -0.0092  -0.0001  -0.0004  -0.5079  -0.7434
 110 H   :2py    0.0008   0.0073  -0.0152   0.0015  -0.0011  -0.2213  -0.3229
 111 H   :2pz   -0.0004  -0.0040   0.0102  -0.0014  -0.0070   0.5201   0.1642
 117 H   :3d2-   0.0003   0.0022  -0.0056  -0.0006   0.0045  -0.0051  -0.0259
 118 H   :3d1-  -0.0004  -0.0031   0.0082  -0.0101   0.0046   0.0246   0.0253
 120 H   :3d1+  -0.0001  -0.0015   0.0043   0.0007   0.0013   0.0134   0.0223
 122 H   :3d2-   0.0002   0.0004  -0.0065   0.0072   0.0036   0.0249  -0.0563
 123 H   :3d1-  -0.0003  -0.0016   0.0060  -0.0092  -0.0011  -0.0855  -0.0013
 124 H   :3d0   -0.0002  -0.0007  -0.0012  -0.0012  -0.0010  -0.0388   0.0693
 125 H   :3d1+  -0.0002  -0.0017   0.0024   0.0011   0.0018   0.0846   0.0698
 126 H   :3d2+  -0.0002  -0.0008   0.0037  -0.0069   0.0017  -0.0630  -0.0256

    Orbital         8        9       10       11       12       13       14
   2 O   :1s    -0.1131  -0.0338  -0.0676  -0.0541   0.0261  -0.0127   0.0176
   4 O   :1s     0.2071  -0.3096  -0.4274   0.1850   0.1872  -0.2441  -0.2600
   5 O   :1s     1.9311  -1.1719  -0.6901   1.4730   0.0303  -1.2878  -2.2431
   6 O   :1s     9.6951  -6.5948  -1.8318   8.5578  -1.2023  -7.8944 -11.6327
   7 O   :2px   -0.0671   0.0622  -0.0222   0.0395   0.0092   0.0004   0.0186
   8 O   :2py    0.0444  -0.0299  -0.0698   0.0440  -0.0329   0.0158   0.0124
   9 O   :2pz   -0.0260  -0.0599   0.0508   0.0663   0.0493  -0.0091  -0.0394
  10 O   :2px    0.0015  -0.0203   0.0050  -0.0041   0.0008  -0.0006  -0.0067
  11 O   :2py   -0.0146   0.0067   0.0270  -0.0137  -0.0047   0.0084   0.0094
  12 O   :2pz   -0.0021   0.0115  -0.0100   0.0065  -0.0019  -0.0032   0.0018
  13 O   :2px    0.0135  -0.2385   0.0212  -0.1544   0.0411   0.2725   0.0827
  14 O   :2py   -0.0336  -0.0163   0.2549  -0.1165  -0.0397   0.2415   0.0666
  15 O   :2pz   -0.0377   0.0635  -0.1799   0.1328   0.0920  -0.2594  -0.1585
  16 O   :2px    0.0572  -0.9397   0.3704  -0.7385   0.1175   0.3129   0.0417
  17 O   :2py    0.0584   0.1398   0.8682  -0.5561   0.1152   0.3541   0.0196
  18 O   :2pz    0.4864   0.3524  -0.7580   0.2273   0.4625  -0.5785  -0.2172
  19 O   :2px    0.4649  -2.7617   1.2902  -1.8082  -0.0341   0.8842   0.6397
  20 O   :2py    0.1298   0.4382   2.1538  -1.3579  -0.2549   1.0800   0.9219
  21 O   :2pz    0.9942   1.6391  -1.6731  -0.2119   0.8340  -1.2725  -1.0037
  28 O   :3d1-   0.0001   0.0028   0.0118  -0.0063  -0.0044   0.0122   0.0075
  29 O   :3d0    0.0002   0.0020   0.0112   0.0011  -0.0003   0.0018  -0.0019
  30 O   :3d1+  -0.0062   0.0102   0.0044   0.0012  -0.0023   0.0030   0.0031
  31 O   :3d2+  -0.0004  -0.0075   0.0059  -0.0054  -0.0053   0.0134   0.0033
  32 O   :3d2-   0.0307   0.0016  -0.0088   0.0436  -0.0800  -0.1582  -0.0061
  33 O   :3d1-   0.0161   0.0049   0.0485  -0.0460  -0.0125   0.1531   0.0858
  34 O   :3d0   -0.0177   0.0089   0.0076  -0.0075   0.0560   0.0045  -0.1139
  35 O   :3d1+  -0.0135   0.0334   0.0039   0.0044   0.0949  -0.0799   0.0904
  36 O   :3d2+   0.0243  -0.0635   0.0147  -0.0385  -0.0935   0.2077   0.0106
  37 O   :3d2-   0.0865  -0.0742   0.0173   0.0911  -0.2005  -0.2047   0.0081
  38 O   :3d1-  -0.0389   0.1114   0.0536  -0.1166   0.0049   0.0975   0.0757
  39 O   :3d0   -0.0341   0.0197   0.1221   0.1408   0.1465   0.1041  -0.2145
  40 O   :3d1+  -0.0781  -0.0814  -0.0681  -0.0717   0.2729  -0.1125   0.1836
  41 O   :3d2+   0.0986   0.0450   0.1178  -0.0242  -0.0272   0.2236  -0.2305
  49 O   :4f3-  -0.0007   0.0012   0.0034   0.0015   0.0075  -0.0123  -0.0004
  52 O   :4f0    0.0003  -0.0033   0.0004  -0.0021   0.0004   0.0108   0.0034
  56 O   :4f3-  -0.0042  -0.0165   0.0081  -0.0099   0.0124  -0.0875   0.0101
  57 O   :4f2-   0.0109   0.0211  -0.0310   0.0091  -0.0374   0.0299  -0.0206
  58 O   :4f1-   0.0048   0.0071   0.0073  -0.0151  -0.0201  -0.0180   0.0593
  59 O   :4f0    0.0061   0.0055   0.0243  -0.0172  -0.0203   0.0372  -0.0053
  60 O   :4f1+  -0.0157  -0.0029   0.0085   0.0061   0.0016  -0.0105  -0.0088
  61 O   :4f2+   0.0130   0.0145   0.0037   0.0019   0.0324   0.0120   0.0301
  62 O   :4f3+   0.0197  -0.0203  -0.0072   0.0000  -0.0520  -0.0127   0.0036
  63 H   :1s     0.0319   0.0203   0.0213   0.0166   0.0184  -0.0253   0.0049
  64 H   :1s    -0.0444   0.2170   0.0596   0.1029   0.1402  -0.3199  -0.0195
  65 H   :1s    -0.5535   0.7835   0.2248  -0.1711   0.8340  -0.8016   0.5464
  66 H   :1s    -6.8937  14.1879 -10.7852   3.5585   3.9855 -15.7555  -1.7868
  67 H   :1s     0.8619   3.8682  -3.8762   2.1848   0.0875  -0.6078  -0.9940
  71 H   :2px    0.0376  -0.0765  -0.0100  -0.0091   0.0071   0.0246  -0.0399
  72 H   :2py   -0.0175   0.0511  -0.0164   0.0057   0.0212   0.0414   0.0046
  73 H   :2pz   -0.0062   0.0252   0.0325  -0.0075  -0.0004  -0.0013  -0.0357
  74 H   :2px    0.0795  -0.0789  -0.1983   0.2491   0.3170  -0.0326  -0.0684
  75 H   :2py   -0.1948   0.3622  -0.3561   0.0800   0.0543   0.6343   0.0835
  76 H   :2pz   -0.2135   0.0632   0.2833  -0.0822  -0.1517   0.1058  -0.5672
  77 H   :2px    1.2298  -1.7294   1.8934  -0.5120   1.6371   2.2705  -0.0721
  78 H   :2py   -0.4150   0.3803  -0.7079   0.0442   0.6116   3.8085   0.4172
  79 H   :2pz   -1.3099   0.8496  -0.9344   0.3214  -0.5892  -1.0328  -2.8868
  85 H   :3d2-   0.0124  -0.0324   0.0235  -0.0021   0.0118  -0.0440  -0.0069
  86 H   :3d1-  -0.0133   0.0158  -0.0046   0.0015  -0.0057   0.0100  -0.0069
  87 H   :3d0    0.0114  -0.0043   0.0214  -0.0004   0.0125  -0.0193  -0.0238
  88 H   :3d1+  -0.0100   0.0078  -0.0439   0.0168   0.0061  -0.0333   0.0266
  89 H   :3d2+  -0.0171   0.0115   0.0138  -0.0148  -0.0323   0.0145   0.0296
  90 H   :3d2-   0.0369  -0.0398   0.2047  -0.0336  -0.1465  -0.2485   0.0478
  91 H   :3d1-  -0.0242  -0.0266   0.0242   0.1457   0.0596   0.2313   0.1692
  92 H   :3d0   -0.0609   0.0322  -0.0741  -0.0376   0.0117   0.0013  -0.2071
  93 H   :3d1+   0.1465   0.0705  -0.0174   0.0249   0.1611  -0.0200   0.3455
  94 H   :3d2+  -0.0628  -0.0192  -0.0446  -0.0143  -0.3384  -0.0036   0.1139
  95 H   :1s     0.0388   0.0178   0.0211   0.0222   0.0049   0.0460   0.0046
  96 H   :1s    -0.0150  -0.0021   0.2740  -0.1590   0.0086   0.4362   0.1291
  97 H   :1s    -0.7476   0.2789   0.5869  -0.8555   0.2746   1.7376   1.3467
  98 H   :1s    -1.8632  -7.0425  12.9312 -11.7454  -2.4011  24.1978  14.1919
  99 H   :1s    -2.3558  -3.6741   3.9963  -3.1945  -0.4593   0.7426   1.2197
 103 H   :2px    0.0024   0.0098   0.0160  -0.0051  -0.0789   0.0468   0.0130
 104 H   :2py   -0.0435   0.0017   0.1067  -0.0656   0.0009   0.0467   0.0747
 105 H   :2pz    0.0389   0.0091  -0.0325   0.0184  -0.0134  -0.0380   0.0659
 106 H   :2px    0.0949   0.2610  -0.1579   0.2566  -0.7280   0.4163   0.2133
 107 H   :2py   -0.2688  -0.1043   0.0138  -0.2590  -0.2063  -0.1499   0.7392
 108 H   :2pz    0.1129  -0.0725   0.2230  -0.0554  -0.0058  -0.3002   0.5023
 109 H   :2px    0.2936  -0.5223   1.2572  -0.1093  -2.9201   3.3323   1.1586
 110 H   :2py   -0.7298  -1.7861   1.8266  -1.6159  -0.7708   0.2463   2.0683
 111 H   :2pz   -0.1469   0.5051  -0.6241   1.3223   0.1107  -2.3454   2.0516
 117 H   :3d2-  -0.0035   0.0141   0.0032   0.0044  -0.0604   0.0069   0.0203
 118 H   :3d1-   0.0333   0.0062  -0.0124   0.0092  -0.0096   0.0274   0.0512
 119 H   :3d0   -0.0073  -0.0074  -0.0119   0.0094   0.0199   0.0172  -0.0499
 120 H   :3d1+   0.0115  -0.0006   0.0020  -0.0139   0.0215   0.0051   0.0169
 121 H   :3d2+   0.0218   0.0151  -0.0244   0.0225  -0.0181   0.0272  -0.0292
 122 H   :3d2-  -0.0030   0.0565   0.0482   0.0764  -0.2132  -0.0095   0.0101
 123 H   :3d1-  -0.0328   0.0213   0.0492   0.0885   0.1078   0.0233   0.0355
 124 H   :3d0    0.0658   0.1148  -0.0827  -0.1313   0.1383   0.0504  -0.2410
 125 H   :3d1+   0.1036  -0.0078   0.0658  -0.0203   0.1771  -0.1069   0.2378
 126 H   :3d2+   0.0835   0.1132   0.0228   0.0554  -0.2042   0.2121  -0.0519

    Orbital        15
   2 O   :1s    -0.0169
   4 O   :1s     0.4790
   5 O   :1s     3.5218
   6 O   :1s    22.9070
   7 O   :2px    0.1023
   8 O   :2py   -0.1121
  11 O   :2py   -0.0176
  13 O   :2px    0.3155
  14 O   :2py   -0.3971
  15 O   :2pz    0.2119
  16 O   :2px    1.7963
  17 O   :2py   -1.1300
  18 O   :2pz    0.8344
  19 O   :2px    2.4979
  20 O   :2py   -2.3413
  21 O   :2pz    0.9007
  32 O   :3d2-  -0.0461
  33 O   :3d1-  -0.0986
  34 O   :3d0   -0.1068
  35 O   :3d1+  -0.0275
  37 O   :3d2-  -0.1546
  38 O   :3d1-  -0.0940
  39 O   :3d0   -0.0753
  40 O   :3d1+  -0.1209
  41 O   :3d2+   0.1685
  53 O   :4f1+  -0.0101
  56 O   :4f3-  -0.0127
  57 O   :4f2-   0.0103
  59 O   :4f0    0.0225
  60 O   :4f1+  -0.0236
  61 O   :4f2+  -0.0429
  62 O   :4f3+   0.0198
  64 H   :1s    -0.3032
  65 H   :1s    -1.6918
  66 H   :1s    -1.9422
  67 H   :1s    -0.4510
  71 H   :2px    0.0545
  73 H   :2pz   -0.0863
  74 H   :2px   -0.3019
  75 H   :2py    0.0670
  76 H   :2pz   -0.3079
  77 H   :2px   -2.7268
  78 H   :2py   -0.9346
  79 H   :2pz    0.0129
  85 H   :3d2-  -0.0199
  87 H   :3d0   -0.0295
  88 H   :3d1+   0.0495
  89 H   :3d2+   0.0413
  90 H   :3d2-   0.1293
  91 H   :3d1-  -0.0420
  92 H   :3d0   -0.2255
  93 H   :3d1+   0.0500
  94 H   :3d2+   0.3030
  95 H   :1s     0.0164
  96 H   :1s    -0.3223
  97 H   :1s    -1.6641
  98 H   :1s   -21.9773
  99 H   :1s    -0.0660
 103 H   :2px   -0.0660
 104 H   :2py   -0.0696
 105 H   :2pz    0.0260
 106 H   :2px   -0.3175
 107 H   :2py   -0.1814
 108 H   :2pz   -0.0569
 109 H   :2px   -2.3703
 110 H   :2py   -1.5864
 111 H   :2pz    1.2523
 117 H   :3d2-  -0.0193
 118 H   :3d1-  -0.0227
 119 H   :3d0    0.0122
 121 H   :3d2+  -0.0122
 122 H   :3d2-  -0.0382
 123 H   :3d1-  -0.1023
 124 H   :3d0   -0.0231
 125 H   :3d1+  -0.0399
 126 H   :3d2+  -0.0362

  Total CPU  time used in SIRIUS :  2 minutes 13 seconds
  Total wall time used in SIRIUS : 15 minutes 10 seconds

 
     Date and time (Linux)  : Tue Feb 22 09:33:10 2022
     Host name              : xlr178node057.psmn.ens-lyon.fr          

 NOTE:    1 informational messages have been issued.
 Check output, result, and error files for "INFO".


                     .---------------------------------------.
                     | End of Wave Function Section (SIRIUS) |
                     `---------------------------------------'



                 .------------------------------------------------.
                 | Starting in Dynamic Property Section (RESPONS) |
                 `------------------------------------------------'


 ------------------------------------------------------------------------------
  RESPONSE  -  an MCSCF, MC-srDFT, DFT, and SOPPA response property program
 ------------------------------------------------------------------------------


 -------- OUTPUT FROM RESPONSE INPUT PROCESSING --------




 Quadratic Response calculation
 ------------------------------

 First hyperpolarizability calculation : HYPCAL= T

 Spin of operator A , ISPINA=    0
 Spin of operator B , ISPINB=    0
 Spin of operator C , ISPINC=    0

  2 B-frequencies  0.000000D+00  5.686000D-02
  2 C-frequencies  0.000000D+00  5.686000D-02
 Second harmonic generation                     : SHG    = T

 Print level                                    : IPRHYP =   2
 Maximum number of iterations in lin.rsp. solver: MAXITL =  60
 Threshold for convergence of linear resp. eq.s : THCLR  = 1.000D-03
 Maximum iterations in optimal orbital algorithm: MAXITO =   5
 Direct one-index transformation                : DIROIT = T
 Environment is modeled using the polarizable embedding scheme (PE library)

    3 A OPERATORS OF SYMMETRY NO:    1 AND LABELS:

          XDIPLEN 
          YDIPLEN 
          ZDIPLEN 

    3 B OPERATORS OF SYMMETRY NO:    1 AND LABELS:

          XDIPLEN 
          YDIPLEN 
          ZDIPLEN 

    3 C OPERATORS OF SYMMETRY NO:    1 AND LABELS:

          XDIPLEN 
          YDIPLEN 
          ZDIPLEN 


   SCF energy         :      -76.473100810588576
 -- inactive part     :      -85.627846295797909
 -- nuclear repulsion :        9.194957907206643


                    *****************************************
                    *** DFT response calculation (TD-DFT) ***
                    *****************************************



 Linear response calculations for quadratic response
 - singlet property operator of symmetry    1  ( A  )


 Perturbation symmetry.     KSYMOP:       1
 Perturbation spin symmetry.TRPLET:       F
 Orbital variables.         KZWOPT:     605
 Configuration variables.   KZCONF:       0
 Total number of variables. KZVAR :     605


 QRLRVE -- linear response calculation for symmetry  1  ( A  )
 QRLRVE -- operator label : XDIPLEN 
 QRLRVE -- operator spin  :   0
 QRLRVE -- frequencies :  0.000000  0.056860  0.113720



 ---  SOLVING SETS OF LINEAR EQUATIONS FOR LINEAR RESPONSE PROPERTIES ---

 Operator symmetry = 1  ( A  ); triplet =   F


 ** RSPCTL MICROITERATION NUMBER    1

       No.  Residual tot.,    conf., and orb.    Bnorm      Frequency 
      ----------------------------------------------------------------
         1    1.12619D+00  0.00D+00  1.13D+00  2.49D+00    0.00000D+00
         2    1.13520D+00  0.00D+00  1.14D+00  2.54D+00    5.68600D-02
         3    1.16424D+00  0.00D+00  1.16D+00  2.72D+00    1.13720D-01

 ** RSPCTL MICROITERATION NUMBER    2

       No.  Residual tot.,    conf., and orb.    Bnorm      Frequency 
      ----------------------------------------------------------------
         1    3.48993D-01  0.00D+00  3.49D-01  2.57D+00    0.00000D+00
         2    3.53803D-01  0.00D+00  3.54D-01  2.62D+00    5.68600D-02
         3    3.69702D-01  0.00D+00  3.70D-01  2.81D+00    1.13720D-01

 ** RSPCTL MICROITERATION NUMBER    3

       No.  Residual tot.,    conf., and orb.    Bnorm      Frequency 
      ----------------------------------------------------------------
         1    6.31036D-02  0.00D+00  6.31D-02  2.58D+00    0.00000D+00
         2    6.46967D-02  0.00D+00  6.47D-02  2.63D+00    5.68600D-02
         3    7.00413D-02  0.00D+00  7.00D-02  2.82D+00    1.13720D-01

 ** RSPCTL MICROITERATION NUMBER    4

       No.  Residual tot.,    conf., and orb.    Bnorm      Frequency 
      ----------------------------------------------------------------
         1    7.01727D-03  0.00D+00  7.02D-03  2.58D+00    0.00000D+00
         2    7.32402D-03  0.00D+00  7.32D-03  2.64D+00    5.68600D-02
         3    8.38594D-03  0.00D+00  8.39D-03  2.82D+00    1.13720D-01

 ** RSPCTL MICROITERATION NUMBER    5

       No.  Residual tot.,    conf., and orb.    Bnorm      Frequency 
      ----------------------------------------------------------------
         1    7.81602D-04  0.00D+00  7.82D-04  2.58D+00    0.00000D+00
         2    8.36185D-04  0.00D+00  8.36D-04  2.64D+00    5.68600D-02
         3    1.03096D-03  0.00D+00  1.03D-03  2.82D+00    1.13720D-01

 *** THE REQUESTED    3 SOLUTION VECTORS CONVERGED

 Convergence of RSP solution vectors, threshold = 1.00D-03
 ---------------------------------------------------------------
 (dimension of paired reduced space:   30)
 RSP solution vector no.    1; norm of residual   3.03D-04
 RSP solution vector no.    2; norm of residual   3.17D-04
 RSP solution vector no.    3; norm of residual   3.65D-04

 *** RSPCTL MICROITERATIONS CONVERGED

@ QRLRVE: SINGLET SOLUTION FOR SYMMETRY    1  ( A  )    LABEL   XDIPLEN     FREQUENCY   0.000000D+00

@ QRLRVE:  << XDIPLEN  ; XDIPLEN  >> (   0.00000):     9.27717368669    

@ QRLRVE:  << YDIPLEN  ; XDIPLEN  >> (   0.00000):   -0.200686623488    

@ QRLRVE:  << ZDIPLEN  ; XDIPLEN  >> (   0.00000):   -0.103741602085    

@ QRLRVE: SINGLET SOLUTION FOR SYMMETRY    1  ( A  )    LABEL   XDIPLEN     FREQUENCY   0.568600D-01

@ QRLRVE:  << XDIPLEN  ; XDIPLEN  >> (   0.05686):     9.36825071505    

@ QRLRVE:  << YDIPLEN  ; XDIPLEN  >> (   0.05686):   -0.208095839154    

@ QRLRVE:  << ZDIPLEN  ; XDIPLEN  >> (   0.05686):   -8.019312238174E-02

@ QRLRVE: SINGLET SOLUTION FOR SYMMETRY    1  ( A  )    LABEL   XDIPLEN     FREQUENCY   0.113720D+00

@ QRLRVE:  << XDIPLEN  ; XDIPLEN  >> (   0.11372):     9.66167101539    

@ QRLRVE:  << YDIPLEN  ; XDIPLEN  >> (   0.11372):   -0.231236426092    

@ QRLRVE:  << ZDIPLEN  ; XDIPLEN  >> (   0.11372):    7.004829077119E-03


 QRLRVE -- linear response calculation for symmetry  1  ( A  )
 QRLRVE -- operator label : YDIPLEN 
 QRLRVE -- operator spin  :   0
 QRLRVE -- frequencies :  0.000000  0.056860  0.113720



 ---  SOLVING SETS OF LINEAR EQUATIONS FOR LINEAR RESPONSE PROPERTIES ---

 Operator symmetry = 1  ( A  ); triplet =   F


 ** RSPCTL MICROITERATION NUMBER    1

       No.  Residual tot.,    conf., and orb.    Bnorm      Frequency 
      ----------------------------------------------------------------
         1    1.30716D+00  0.00D+00  1.31D+00  2.62D+00    0.00000D+00
         2    1.31725D+00  0.00D+00  1.32D+00  2.68D+00    5.68600D-02
         3    1.34937D+00  0.00D+00  1.35D+00  2.87D+00    1.13720D-01

 ** RSPCTL MICROITERATION NUMBER    2

       No.  Residual tot.,    conf., and orb.    Bnorm      Frequency 
      ----------------------------------------------------------------
         1    3.47228D-01  0.00D+00  3.47D-01  2.71D+00    0.00000D+00
         2    3.51221D-01  0.00D+00  3.51D-01  2.78D+00    5.68600D-02
         3    3.64112D-01  0.00D+00  3.64D-01  2.98D+00    1.13720D-01

 ** RSPCTL MICROITERATION NUMBER    3

       No.  Residual tot.,    conf., and orb.    Bnorm      Frequency 
      ----------------------------------------------------------------
         1    5.53973D-02  0.00D+00  5.54D-02  2.72D+00    0.00000D+00
         2    5.63959D-02  0.00D+00  5.64D-02  2.79D+00    5.68600D-02
         3    5.96906D-02  0.00D+00  5.97D-02  2.99D+00    1.13720D-01

 ** RSPCTL MICROITERATION NUMBER    4

       No.  Residual tot.,    conf., and orb.    Bnorm      Frequency 
      ----------------------------------------------------------------
         1    6.63488D-03  0.00D+00  6.63D-03  2.72D+00    0.00000D+00
         2    6.86169D-03  0.00D+00  6.86D-03  2.79D+00    5.68600D-02
         3    7.62798D-03  0.00D+00  7.63D-03  2.99D+00    1.13720D-01

 ** RSPCTL MICROITERATION NUMBER    5

       No.  Residual tot.,    conf., and orb.    Bnorm      Frequency 
      ----------------------------------------------------------------
         1    8.33651D-04  0.00D+00  8.34D-04  2.72D+00    0.00000D+00
         2    8.80752D-04  0.00D+00  8.81D-04  2.79D+00    5.68600D-02
         3    1.04509D-03  0.00D+00  1.05D-03  2.99D+00    1.13720D-01

 *** THE REQUESTED    3 SOLUTION VECTORS CONVERGED

 Convergence of RSP solution vectors, threshold = 1.00D-03
 ---------------------------------------------------------------
 (dimension of paired reduced space:   30)
 RSP solution vector no.    1; norm of residual   3.06D-04
 RSP solution vector no.    2; norm of residual   3.16D-04
 RSP solution vector no.    3; norm of residual   3.49D-04

 *** RSPCTL MICROITERATIONS CONVERGED

@ QRLRVE: SINGLET SOLUTION FOR SYMMETRY    1  ( A  )    LABEL   YDIPLEN     FREQUENCY   0.000000D+00

@ QRLRVE:  << XDIPLEN  ; YDIPLEN  >> (   0.00000):   -0.200628799702    

@ QRLRVE:  << YDIPLEN  ; YDIPLEN  >> (   0.00000):     9.75138095574    

@ QRLRVE:  << ZDIPLEN  ; YDIPLEN  >> (   0.00000):   -2.166526875223E-02

@ QRLRVE: SINGLET SOLUTION FOR SYMMETRY    1  ( A  )    LABEL   YDIPLEN     FREQUENCY   0.568600D-01

@ QRLRVE:  << XDIPLEN  ; YDIPLEN  >> (   0.05686):   -0.208032309315    

@ QRLRVE:  << YDIPLEN  ; YDIPLEN  >> (   0.05686):     9.85719345679    

@ QRLRVE:  << ZDIPLEN  ; YDIPLEN  >> (   0.05686):   -5.032289368637E-03

@ QRLRVE: SINGLET SOLUTION FOR SYMMETRY    1  ( A  )    LABEL   YDIPLEN     FREQUENCY   0.113720D+00

@ QRLRVE:  << XDIPLEN  ; YDIPLEN  >> (   0.11372):   -0.231151382675    

@ QRLRVE:  << YDIPLEN  ; YDIPLEN  >> (   0.11372):     10.1984335561    

@ QRLRVE:  << ZDIPLEN  ; YDIPLEN  >> (   0.11372):    5.626814757774E-02


 QRLRVE -- linear response calculation for symmetry  1  ( A  )
 QRLRVE -- operator label : ZDIPLEN 
 QRLRVE -- operator spin  :   0
 QRLRVE -- frequencies :  0.000000  0.056860  0.113720



 ---  SOLVING SETS OF LINEAR EQUATIONS FOR LINEAR RESPONSE PROPERTIES ---

 Operator symmetry = 1  ( A  ); triplet =   F


 ** RSPCTL MICROITERATION NUMBER    1

       No.  Residual tot.,    conf., and orb.    Bnorm      Frequency 
      ----------------------------------------------------------------
         1    6.87461D-01  0.00D+00  6.87D-01  2.82D+00    0.00000D+00
         2    6.91772D-01  0.00D+00  6.92D-01  2.92D+00    5.68600D-02
         3    7.07381D-01  0.00D+00  7.07D-01  3.23D+00    1.13720D-01

 ** RSPCTL MICROITERATION NUMBER    2

       No.  Residual tot.,    conf., and orb.    Bnorm      Frequency 
      ----------------------------------------------------------------
         1    2.14633D-01  0.00D+00  2.15D-01  2.86D+00    0.00000D+00
         2    2.21560D-01  0.00D+00  2.22D-01  2.95D+00    5.68600D-02
         3    2.47085D-01  0.00D+00  2.47D-01  3.29D+00    1.13720D-01

 ** RSPCTL MICROITERATION NUMBER    3

       No.  Residual tot.,    conf., and orb.    Bnorm      Frequency 
      ----------------------------------------------------------------
         1    2.36363D-02  0.00D+00  2.36D-02  2.86D+00    0.00000D+00
         2    2.55972D-02  0.00D+00  2.56D-02  2.96D+00    5.68600D-02
         3    3.30403D-02  0.00D+00  3.30D-02  3.30D+00    1.13720D-01

 ** RSPCTL MICROITERATION NUMBER    4

       No.  Residual tot.,    conf., and orb.    Bnorm      Frequency 
      ----------------------------------------------------------------
         1    3.97378D-03  0.00D+00  3.97D-03  2.86D+00    0.00000D+00
         2    4.35926D-03  0.00D+00  4.36D-03  2.96D+00    5.68600D-02
         3    5.82972D-03  0.00D+00  5.83D-03  3.30D+00    1.13720D-01

 ** RSPCTL MICROITERATION NUMBER    5

       No.  Residual tot.,    conf., and orb.    Bnorm      Frequency 
      ----------------------------------------------------------------
         1    4.94924D-04  0.00D+00  4.95D-04  2.86D+00    0.00000D+00
         2    5.43939D-04  0.00D+00  5.44D-04  2.96D+00    5.68600D-02
         3    7.40594D-04  0.00D+00  7.41D-04  3.30D+00    1.13720D-01

 *** THE REQUESTED    3 SOLUTION VECTORS CONVERGED

 Convergence of RSP solution vectors, threshold = 1.00D-03
 ---------------------------------------------------------------
 (dimension of paired reduced space:   30)
 RSP solution vector no.    1; norm of residual   1.73D-04
 RSP solution vector no.    2; norm of residual   1.84D-04
 RSP solution vector no.    3; norm of residual   2.25D-04

 *** RSPCTL MICROITERATIONS CONVERGED

@ QRLRVE: SINGLET SOLUTION FOR SYMMETRY    1  ( A  )    LABEL   ZDIPLEN     FREQUENCY   0.000000D+00

@ QRLRVE:  << XDIPLEN  ; ZDIPLEN  >> (   0.00000):   -0.103620962679    

@ QRLRVE:  << YDIPLEN  ; ZDIPLEN  >> (   0.00000):   -2.173759874181E-02

@ QRLRVE:  << ZDIPLEN  ; ZDIPLEN  >> (   0.00000):     9.57804414028    

@ QRLRVE: SINGLET SOLUTION FOR SYMMETRY    1  ( A  )    LABEL   ZDIPLEN     FREQUENCY   0.568600D-01

@ QRLRVE:  << XDIPLEN  ; ZDIPLEN  >> (   0.05686):   -8.006596236511E-02

@ QRLRVE:  << YDIPLEN  ; ZDIPLEN  >> (   0.05686):   -5.109963682779E-03

@ QRLRVE:  << ZDIPLEN  ; ZDIPLEN  >> (   0.05686):     9.71423552059    

@ QRLRVE: SINGLET SOLUTION FOR SYMMETRY    1  ( A  )    LABEL   ZDIPLEN     FREQUENCY   0.113720D+00

@ QRLRVE:  << XDIPLEN  ; ZDIPLEN  >> (   0.11372):    7.154001715405E-03

@ QRLRVE:  << YDIPLEN  ; ZDIPLEN  >> (   0.11372):    5.617137957645E-02

@ QRLRVE:  << ZDIPLEN  ; ZDIPLEN  >> (   0.11372):     10.1726168099    
 
 ======================================================================
 ---  L I N E A R   R E S P O N S E   F U N C T I O N S --- 
 ======================================================================

 The -<<A;B>>(omega_b) functions from vectors generated
 in a *QUADRA calculation of <<A;B,C>>(omega_b,omega_c)

 Note: the accuracy of off-diagonal elements will be linear
 in the convergence threshold THCLR =  1.00D-03


 Perturbation symmetry.     KSYMOP:       1
 Perturbation spin symmetry.TRPLET:       F
 Orbital variables.         KZWOPT:     605
 Configuration variables.   KZCONF:       0
 Total number of variables. KZVAR :     605

@ Singlet linear response function in a.u.

@ A operator, symmetry, frequency:   XDIPLEN    1 -0.000000
@ B operator, symmetry, frequency:   XDIPLEN    1  0.000000

@ Value of linear response -<<A;B>>(omega):       9.277173686689

@ Singlet linear response function in a.u.

@ A operator, symmetry, frequency:   YDIPLEN    1 -0.000000
@ B operator, symmetry, frequency:   XDIPLEN    1  0.000000

@ Value of linear response -<<A;B>>(omega):      -0.200686623488

@ Singlet linear response function in a.u.

@ A operator, symmetry, frequency:   ZDIPLEN    1 -0.000000
@ B operator, symmetry, frequency:   XDIPLEN    1  0.000000

@ Value of linear response -<<A;B>>(omega):      -0.103741602085

@ Singlet linear response function in a.u.

@ A operator, symmetry, frequency:   XDIPLEN    1 -0.056860
@ B operator, symmetry, frequency:   XDIPLEN    1  0.056860

@ Value of linear response -<<A;B>>(omega):       9.368250715054

@ Singlet linear response function in a.u.

@ A operator, symmetry, frequency:   YDIPLEN    1 -0.056860
@ B operator, symmetry, frequency:   XDIPLEN    1  0.056860

@ Value of linear response -<<A;B>>(omega):      -0.208095839154

@ Singlet linear response function in a.u.

@ A operator, symmetry, frequency:   ZDIPLEN    1 -0.056860
@ B operator, symmetry, frequency:   XDIPLEN    1  0.056860

@ Value of linear response -<<A;B>>(omega):      -0.080193122382

@ Singlet linear response function in a.u.

@ A operator, symmetry, frequency:   XDIPLEN    1 -0.000000
@ B operator, symmetry, frequency:   YDIPLEN    1  0.000000

@ Value of linear response -<<A;B>>(omega):      -0.200628799702

@ Singlet linear response function in a.u.

@ A operator, symmetry, frequency:   YDIPLEN    1 -0.000000
@ B operator, symmetry, frequency:   YDIPLEN    1  0.000000

@ Value of linear response -<<A;B>>(omega):       9.751380955737

@ Singlet linear response function in a.u.

@ A operator, symmetry, frequency:   ZDIPLEN    1 -0.000000
@ B operator, symmetry, frequency:   YDIPLEN    1  0.000000

@ Value of linear response -<<A;B>>(omega):      -0.021665268752

@ Singlet linear response function in a.u.

@ A operator, symmetry, frequency:   XDIPLEN    1 -0.056860
@ B operator, symmetry, frequency:   YDIPLEN    1  0.056860

@ Value of linear response -<<A;B>>(omega):      -0.208032309315

@ Singlet linear response function in a.u.

@ A operator, symmetry, frequency:   YDIPLEN    1 -0.056860
@ B operator, symmetry, frequency:   YDIPLEN    1  0.056860

@ Value of linear response -<<A;B>>(omega):       9.857193456788

@ Singlet linear response function in a.u.

@ A operator, symmetry, frequency:   ZDIPLEN    1 -0.056860
@ B operator, symmetry, frequency:   YDIPLEN    1  0.056860

@ Value of linear response -<<A;B>>(omega):      -0.005032289369

@ Singlet linear response function in a.u.

@ A operator, symmetry, frequency:   XDIPLEN    1 -0.000000
@ B operator, symmetry, frequency:   ZDIPLEN    1  0.000000

@ Value of linear response -<<A;B>>(omega):      -0.103620962679

@ Singlet linear response function in a.u.

@ A operator, symmetry, frequency:   YDIPLEN    1 -0.000000
@ B operator, symmetry, frequency:   ZDIPLEN    1  0.000000

@ Value of linear response -<<A;B>>(omega):      -0.021737598742

@ Singlet linear response function in a.u.

@ A operator, symmetry, frequency:   ZDIPLEN    1 -0.000000
@ B operator, symmetry, frequency:   ZDIPLEN    1  0.000000

@ Value of linear response -<<A;B>>(omega):       9.578044140279

@ Singlet linear response function in a.u.

@ A operator, symmetry, frequency:   XDIPLEN    1 -0.056860
@ B operator, symmetry, frequency:   ZDIPLEN    1  0.056860

@ Value of linear response -<<A;B>>(omega):      -0.080065962365

@ Singlet linear response function in a.u.

@ A operator, symmetry, frequency:   YDIPLEN    1 -0.056860
@ B operator, symmetry, frequency:   ZDIPLEN    1  0.056860

@ Value of linear response -<<A;B>>(omega):      -0.005109963683

@ Singlet linear response function in a.u.

@ A operator, symmetry, frequency:   ZDIPLEN    1 -0.056860
@ B operator, symmetry, frequency:   ZDIPLEN    1  0.056860

@ Value of linear response -<<A;B>>(omega):       9.714235520589


  Results from quadratic response calculation
 --------------------------------------------

 DFT-QR computed in a linearly-scaling fashion.

@ B-freq = 0.000000  C-freq = 0.000000     beta(X;X,X) =     -2.24810549
@ B-freq = 0.000000  C-freq = 0.000000     beta(Y;X,X) =      0.91871171
@ B-freq = 0.000000  C-freq = 0.000000     beta(Z;X,X) =      0.80529350
@ B-freq = 0.000000  C-freq = 0.000000     beta(X;Y,X) = beta(Y,X,X)
@ B-freq = 0.000000  C-freq = 0.000000     beta(X;Y,X) =      0.91871175
@ B-freq = 0.000000  C-freq = 0.000000     beta(Y;Y,X) =      0.28766196
@ B-freq = 0.000000  C-freq = 0.000000     beta(Z;Y,X) =     -0.42476141
@ B-freq = 0.000000  C-freq = 0.000000     beta(X;Z,X) = beta(Z,X,X)
@ B-freq = 0.000000  C-freq = 0.000000     beta(Y;Z,X) = beta(Z,Y,X)
@ B-freq = 0.000000  C-freq = 0.000000     beta(X;Z,X) =      0.80529343
@ B-freq = 0.000000  C-freq = 0.000000     beta(Y;Z,X) =     -0.42476139
@ B-freq = 0.000000  C-freq = 0.000000     beta(Z;Z,X) =     -1.63665383
@ B-freq = 0.056860  C-freq = 0.056860     beta(X;X,X) =     -2.57685101
@ B-freq = 0.056860  C-freq = 0.056860     beta(Y;X,X) =      1.02240064
@ B-freq = 0.056860  C-freq = 0.056860     beta(Z;X,X) =      0.56606289
@ B-freq = 0.056860  C-freq = 0.056860     beta(X;Y,X) =      1.17126891
@ B-freq = 0.056860  C-freq = 0.056860     beta(Y;Y,X) =      0.09013347
@ B-freq = 0.056860  C-freq = 0.056860     beta(Z;Y,X) =     -0.32036553
@ B-freq = 0.056860  C-freq = 0.056860     beta(X;Z,X) =      0.66665083
@ B-freq = 0.056860  C-freq = 0.056860     beta(Y;Z,X) =     -0.49636125
@ B-freq = 0.056860  C-freq = 0.056860     beta(Z;Z,X) =     -2.18318684
@ B-freq = 0.000000  C-freq = 0.000000     beta(X;X,Y) = beta(Y,X,X)
@ B-freq = 0.000000  C-freq = 0.000000     beta(Y;X,Y) = beta(Y,Y,X)
@ B-freq = 0.000000  C-freq = 0.000000     beta(Z;X,Y) = beta(Z,Y,X)
@ B-freq = 0.000000  C-freq = 0.000000     beta(X;Y,Y) = beta(Y,Y,X)
@ B-freq = 0.000000  C-freq = 0.000000     beta(X;Y,Y) =      0.28766185
@ B-freq = 0.000000  C-freq = 0.000000     beta(Y;Y,Y) =     -0.26467506
@ B-freq = 0.000000  C-freq = 0.000000     beta(Z;Y,Y) =     -1.37753186
@ B-freq = 0.000000  C-freq = 0.000000     beta(X;Z,Y) = beta(Z,Y,X)
@ B-freq = 0.000000  C-freq = 0.000000     beta(Y;Z,Y) = beta(Z,Y,Y)
@ B-freq = 0.000000  C-freq = 0.000000     beta(X;Z,Y) =     -0.42476152
@ B-freq = 0.000000  C-freq = 0.000000     beta(Y;Z,Y) =     -1.37753185
@ B-freq = 0.000000  C-freq = 0.000000     beta(Z;Z,Y) =     -0.67646846
@ B-freq = 0.056860  C-freq = 0.056860     beta(X;X,Y) = beta(X,Y,X)
@ B-freq = 0.056860  C-freq = 0.056860     beta(Y;X,Y) = beta(Y,Y,X)
@ B-freq = 0.056860  C-freq = 0.056860     beta(Z;X,Y) = beta(Z,Y,X)
@ B-freq = 0.056860  C-freq = 0.056860     beta(X;Y,Y) =      0.19045835
@ B-freq = 0.056860  C-freq = 0.056860     beta(Y;Y,Y) =      0.13671841
@ B-freq = 0.056860  C-freq = 0.056860     beta(Z;Y,Y) =     -1.44622672
@ B-freq = 0.056860  C-freq = 0.056860     beta(X;Z,Y) =     -0.26093435
@ B-freq = 0.056860  C-freq = 0.056860     beta(Y;Z,Y) =     -1.50435159
@ B-freq = 0.056860  C-freq = 0.056860     beta(Z;Z,Y) =     -0.31465157
@ B-freq = 0.000000  C-freq = 0.000000     beta(X;X,Z) = beta(Z,X,X)
@ B-freq = 0.000000  C-freq = 0.000000     beta(Y;X,Z) = beta(Z,Y,X)
@ B-freq = 0.000000  C-freq = 0.000000     beta(Z;X,Z) = beta(Z,Z,X)
@ B-freq = 0.000000  C-freq = 0.000000     beta(X;Y,Z) = beta(Z,Y,X)
@ B-freq = 0.000000  C-freq = 0.000000     beta(Y;Y,Z) = beta(Z,Y,Y)
@ B-freq = 0.000000  C-freq = 0.000000     beta(Z;Y,Z) = beta(Z,Z,Y)
@ B-freq = 0.000000  C-freq = 0.000000     beta(X;Z,Z) = beta(Z,Z,X)
@ B-freq = 0.000000  C-freq = 0.000000     beta(Y;Z,Z) = beta(Z,Z,Y)
@ B-freq = 0.000000  C-freq = 0.000000     beta(X;Z,Z) =     -1.63665395
@ B-freq = 0.000000  C-freq = 0.000000     beta(Y;Z,Z) =     -0.67646855
@ B-freq = 0.000000  C-freq = 0.000000     beta(Z;Z,Z) =     -9.23292340
@ B-freq = 0.056860  C-freq = 0.056860     beta(X;X,Z) = beta(X,Z,X)
@ B-freq = 0.056860  C-freq = 0.056860     beta(Y;X,Z) = beta(Y,Z,X)
@ B-freq = 0.056860  C-freq = 0.056860     beta(Z;X,Z) = beta(Z,Z,X)
@ B-freq = 0.056860  C-freq = 0.056860     beta(X;Y,Z) = beta(X,Z,Y)
@ B-freq = 0.056860  C-freq = 0.056860     beta(Y;Y,Z) = beta(Y,Z,Y)
@ B-freq = 0.056860  C-freq = 0.056860     beta(Z;Y,Z) = beta(Z,Z,Y)
@ B-freq = 0.056860  C-freq = 0.056860     beta(X;Z,Z) =     -2.06027274
@ B-freq = 0.056860  C-freq = 0.056860     beta(Y;Z,Z) =     -0.83062242
@ B-freq = 0.056860  C-freq = 0.056860     beta(Z;Z,Z) =    -11.12665807

  Total CPU  time used in RESPONSE:  9 minutes 44 seconds
  Total wall time used in RESPONSE:  9 minutes 50 seconds


                   .-------------------------------------------.
                   | End of Dynamic Property Section (RESPONS) |
                   `-------------------------------------------'


 Center of mass dipole origin  :   -0.084586    0.145221   -0.007879

 Center of mass gauge origin   :   -0.084586    0.145221   -0.007879


                 .------------------------------------------------.
                 | Starting in Static Property Section (ABACUS) - |
                 `------------------------------------------------'


 
     Date and time (Linux)  : Tue Feb 22 09:43:00 2022
     Host name              : xlr178node057.psmn.ens-lyon.fr          


   ***************************************************************************
   ************************ FINAL RESULTS from ABACUS ************************
   ***************************************************************************


 
     Date and time (Linux)  : Tue Feb 22 09:43:00 2022
     Host name              : xlr178node057.psmn.ens-lyon.fr          


                             Molecular geometry (au)
                             -----------------------

 O         -0.1468815407            0.2521727453           -0.0136821754
 H          1.4963924255           -0.1093848654           -0.6776497413
 H         -0.6768874258           -1.2975701447            0.7539902359





                        Molecular wave function and energy
                        ----------------------------------

     Spatial symmetry   1 ( A   )
     Spin multiplicity  1
     2 * M_S            0
     State number       1
     Total charge       0

     Total energy        -76.4731008106 au (Hartrees)
                         -2080.93892788 eV
                           -200780.0952 kJ/mol
                            -47987.5945 kcal/mol


                   Scalar Breit-Pauli relativistic corrections
                   -------------------------------------------

     Darwin correction:                          0.1991448515 au
     Mass-velocity correction:                  -0.2506197326 au

     Total relativistic correction:             -0.0514748811 au ( 0.0673%)
     Non-relativistic + relativistic energy:   -76.5245756917 au



      (Note that these corrections are NOT included in the results below.)


                                  Dipole moment
                                  -------------

                 au               Debye          C m (/(10**-30)
              1.001639           2.545912           8.492249


                             Dipole moment components
                             ------------------------

                 au               Debye          C m (/(10**-30)

      x      0.45286972         1.15107994         3.83958938
      y     -0.89225351        -2.26788205        -7.56484025
      z      0.04553485         0.11573804         0.38606054


   Units:   1 a.u. =   2.54175 Debye 
            1 a.u. =   8.47835 (10**-30) C m (SI)




   Interatomic separations (in Angstrom):
   --------------------------------------

            O           H           H     
            ------      ------      ------
 O     :    0.000000
 H     :    0.957200    0.000000
 H     :    0.957201    1.513902    0.000000


  Max    interatomic separation is    1.5139 Angstrom (    2.8609 Bohr)
  between atoms    3 and    2, "H     " and "H     ".

  Min HX interatomic separation is    0.9572 Angstrom (    1.8088 Bohr)


  Bond distances (Angstrom):
  --------------------------

                  atom 1     atom 2       distance
                  ------     ------       --------
  bond distance:  H          O            0.957200
  bond distance:  H          O            0.957201


  Bond angles (degrees):
  ----------------------

                  atom 1     atom 2     atom 3         angle
                  ------     ------     ------         -----
  bond angle:     H          O          H            104.520


  Total CPU  time used in ABACUS:   0.06 seconds
  Total wall time used in ABACUS:   0.13 seconds


                   .-------------------------------------------.
                   | End of Static Property Section (ABACUS) - |
                   `-------------------------------------------'

  Total CPU  time used in DALTON: 12 minutes  1 second 
  Total wall time used in DALTON: 39 minutes 34 seconds

 
     Date and time (Linux)  : Tue Feb 22 09:43:01 2022
     Host name              : xlr178node057.psmn.ens-lyon.fr          
