

     ************************************************************************
     *************** Dalton - An Electronic Structure Program ***************
     ************************************************************************

    This is output from DALTON release Dalton2018.2 (2019)
         ( Web site: http://daltonprogram.org )

   ----------------------------------------------------------------------------

    NOTE:
     
    Dalton is an experimental code for the evaluation of molecular
    properties using (MC)SCF, DFT, CI, and CC wave functions.
    The authors accept no responsibility for the performance of
    the code or for the correctness of the results.
     
    The code (in whole or part) is provided under a licence and
    is not to be reproduced for further distribution without
    the written permission of the authors or their representatives.
     
    See the home page "http://daltonprogram.org" for further information.
     
    If results obtained with this code are published,
    the appropriate citations would be both of:
     
       K. Aidas, C. Angeli, K. L. Bak, V. Bakken, R. Bast,
       L. Boman, O. Christiansen, R. Cimiraglia, S. Coriani,
       P. Dahle, E. K. Dalskov, U. Ekstroem,
       T. Enevoldsen, J. J. Eriksen, P. Ettenhuber, B. Fernandez,
       L. Ferrighi, H. Fliegl, L. Frediani, K. Hald, A. Halkier,
       C. Haettig, H. Heiberg, T. Helgaker, A. C. Hennum,
       H. Hettema, E. Hjertenaes, S. Hoest, I.-M. Hoeyvik,
       M. F. Iozzi, B. Jansik, H. J. Aa. Jensen, D. Jonsson,
       P. Joergensen, J. Kauczor, S. Kirpekar,
       T. Kjaergaard, W. Klopper, S. Knecht, R. Kobayashi, H. Koch,
       J. Kongsted, A. Krapp, K. Kristensen, A. Ligabue,
       O. B. Lutnaes, J. I. Melo, K. V. Mikkelsen, R. H. Myhre,
       C. Neiss, C. B. Nielsen, P. Norman, J. Olsen,
       J. M. H. Olsen, A. Osted, M. J. Packer, F. Pawlowski,
       T. B. Pedersen, P. F. Provasi, S. Reine, Z. Rinkevicius,
       T. A. Ruden, K. Ruud, V. Rybkin, P. Salek, C. C. M. Samson,
       A. Sanchez de Meras, T. Saue, S. P. A. Sauer,
       B. Schimmelpfennig, K. Sneskov, A. H. Steindal,
       K. O. Sylvester-Hvid, P. R. Taylor, A. M. Teale,
       E. I. Tellgren, D. P. Tew, A. J. Thorvaldsen, L. Thoegersen,
       O. Vahtras, M. A. Watson, D. J. D. Wilson, M. Ziolkowski
       and H. Agren,
       "The Dalton quantum chemistry program system",
       WIREs Comput. Mol. Sci. 2014, 4:269–284 (doi: 10.1002/wcms.1172)
     
    and
     
       Dalton, a molecular electronic structure program,
       Release Dalton2018.2 (2019), see http://daltonprogram.org
   ----------------------------------------------------------------------------

    Authors in alphabetical order (major contribution(s) in parenthesis):

  Kestutis Aidas,           Vilnius University,           Lithuania   (QM/MM)
  Celestino Angeli,         University of Ferrara,        Italy       (NEVPT2)
  Keld L. Bak,              UNI-C,                        Denmark     (AOSOPPA, non-adiabatic coupling, magnetic properties)
  Vebjoern Bakken,          University of Oslo,           Norway      (DALTON; geometry optimizer, symmetry detection)
  Radovan Bast,             UiT The Arctic U. of Norway,  Norway      (DALTON installation and execution frameworks)
  Pablo Baudin,             University of Valencia,       Spain       (Cholesky excitation energies)
  Linus Boman,              NTNU,                         Norway      (Cholesky decomposition and subsystems)
  Ove Christiansen,         Aarhus University,            Denmark     (CC module)
  Renzo Cimiraglia,         University of Ferrara,        Italy       (NEVPT2)
  Sonia Coriani,            Technical Univ. of Denmark,   Denmark     (CC module, MCD in RESPONS)
  Janusz Cukras,            University of Trieste,        Italy       (MChD in RESPONS)
  Paal Dahle,               University of Oslo,           Norway      (Parallelization)
  Erik K. Dalskov,          UNI-C,                        Denmark     (SOPPA)
  Thomas Enevoldsen,        Univ. of Southern Denmark,    Denmark     (SOPPA)
  Janus J. Eriksen,         Aarhus University,            Denmark     (Polarizable embedding model, TDA)
  Rasmus Faber,             University of Copenhagen,     Denmark     (Vib.avg. NMR with SOPPA, parallel AO-SOPPA)
  Tobias Fahleson,          KTH Stockholm,                Sweden      (Damped cubic response)
  Berta Fernandez,          U. of Santiago de Compostela, Spain       (doublet spin, ESR in RESPONS)
  Lara Ferrighi,            Aarhus University,            Denmark     (PCM Cubic response)
  Heike Fliegl,             University of Oslo,           Norway      (CCSD(R12))
  Luca Frediani,            UiT The Arctic U. of Norway,  Norway      (PCM)
  Bin Gao,                  UiT The Arctic U. of Norway,  Norway      (Gen1Int library)
  Christof Haettig,         Ruhr-University Bochum,       Germany     (CC module)
  Kasper Hald,              Aarhus University,            Denmark     (CC module)
  Asger Halkier,            Aarhus University,            Denmark     (CC module)
  Frederik Beyer Hansen,    University of Copenhagen,     Denmark     (Parallel AO-SOPPA)
  Erik D. Hedegaard,        Univ. of Southern Denmark,    Denmark     (Polarizable embedding model, QM/MM)
  Hanne Heiberg,            University of Oslo,           Norway      (geometry analysis, selected one-electron integrals)
  Trygve Helgaker,          University of Oslo,           Norway      (DALTON; ABACUS, ERI, DFT modules, London, and much more)
  Alf Christian Hennum,     University of Oslo,           Norway      (Parity violation)
  Hinne Hettema,            University of Auckland,       New Zealand (quadratic response in RESPONS; SIRIUS supersymmetry)
  Eirik Hjertenaes,         NTNU,                         Norway      (Cholesky decomposition)
  Pi A. B. Haase,           University of Copenhagen,     Denmark     (Triplet AO-SOPPA)
  Maria Francesca Iozzi,    University of Oslo,           Norway      (RPA)
  Christoph Jacob           TU Braunschweig               Germany     (Frozen density embedding model)
  Brano Jansik              Technical Univ. of Ostrava    Czech Rep.  (DFT cubic response)
  Hans Joergen Aa. Jensen,  Univ. of Southern Denmark,    Denmark     (DALTON; SIRIUS, RESPONS, ABACUS modules, London, and much more)
  Dan Jonsson,              UiT The Arctic U. of Norway,  Norway      (cubic response in RESPONS module)
  Poul Joergensen,          Aarhus University,            Denmark     (RESPONS, ABACUS, and CC modules)
  Maciej Kaminski,          University of Warsaw,         Poland      (CPPh in RESPONS)
  Joanna Kauczor,           Linkoeping University,        Sweden      (Complex polarization propagator (CPP) module)
  Sheela Kirpekar,          Univ. of Southern Denmark,    Denmark     (Mass-velocity & Darwin integrals)
  Wim Klopper,              KIT Karlsruhe,                Germany     (R12 code in CC, SIRIUS, and ABACUS modules)
  Stefan Knecht,            ETH Zurich,                   Switzerland (Parallel CI and MCSCF)
  Rika Kobayashi,           Australian National Univ.,    Australia   (DIIS in CC, London in MCSCF)
  Henrik Koch,              NTNU,                         Norway      (CC module, Cholesky decomposition)
  Jacob Kongsted,           Univ. of Southern Denmark,    Denmark     (Polarizable embedding model, QM/MM)
  Andrea Ligabue,           University of Modena,         Italy       (CTOCD, AOSOPPA)
  Nanna H. List             Univ. of Southern Denmark,    Denmark     (Polarizable embedding model)
  Ola B. Lutnaes,           University of Oslo,           Norway      (DFT Hessian)
  Juan I. Melo,             University of Buenos Aires,   Argentina   (LRESC, Relativistic Effects on NMR Shieldings)
  Kurt V. Mikkelsen,        University of Copenhagen,     Denmark     (MC-SCRF and QM/MM)
  Rolf H. Myhre,            NTNU,                         Norway      (Subsystems and CC3)
  Christian Neiss,          Univ. Erlangen-Nuernberg,     Germany     (CCSD(R12))
  Christian B. Nielsen,     University of Copenhagen,     Denmark     (QM/MM)
  Patrick Norman,           KTH Stockholm,                Sweden      (Cubic response and complex frequency response in RESPONS)
  Jeppe Olsen,              Aarhus University,            Denmark     (SIRIUS CI/density modules)
  Jogvan Magnus H. Olsen,   Univ. of Southern Denmark,    Denmark     (Polarizable embedding model, QM/MM)
  Anders Osted,             Copenhagen University,        Denmark     (QM/MM)
  Martin J. Packer,         University of Sheffield,      UK          (SOPPA)
  Filip Pawlowski,          Kazimierz Wielki University,  Poland      (CC3)
  Morten N. Pedersen,       Univ. of Southern Denmark,    Denmark     (Polarizable embedding model)
  Thomas B. Pedersen,       University of Oslo,           Norway      (Cholesky decomposition)
  Patricio F. Provasi,      University of Northeastern,   Argentina   (Analysis of coupling constants in localized orbitals)
  Zilvinas Rinkevicius,     KTH Stockholm,                Sweden      (open-shell DFT, ESR)
  Elias Rudberg,            KTH Stockholm,                Sweden      (DFT grid and basis info)
  Torgeir A. Ruden,         University of Oslo,           Norway      (Numerical derivatives in ABACUS)
  Kenneth Ruud,             UiT The Arctic U. of Norway,  Norway      (DALTON; ABACUS magnetic properties and much more)
  Pawel Salek,              KTH Stockholm,                Sweden      (DALTON; DFT code)
  Claire C. M. Samson       University of Karlsruhe       Germany     (Boys localization, r12 integrals in ERI)
  Alfredo Sanchez de Meras, University of Valencia,       Spain       (CC module, Cholesky decomposition)
  Trond Saue,               Paul Sabatier University,     France      (direct Fock matrix construction)
  Stephan P. A. Sauer,      University of Copenhagen,     Denmark     (SOPPA(CCSD), SOPPA prop., AOSOPPA, vibrational g-factors)
  Andre S. P. Gomes,        CNRS/Universite de Lille,     France      (Frozen density embedding model)
  Bernd Schimmelpfennig,    Forschungszentrum Karlsruhe,  Germany     (AMFI module)
  Kristian Sneskov,         Aarhus University,            Denmark     (Polarizable embedding model, QM/MM)
  Arnfinn H. Steindal,      UiT The Arctic U. of Norway,  Norway      (parallel QM/MM, Polarizable embedding model)
  Casper Steinmann,         Univ. of Southern Denmark,    Denmark     (QFIT, Polarizable embedding model)
  K. O. Sylvester-Hvid,     University of Copenhagen,     Denmark     (MC-SCRF)
  Peter R. Taylor,          VLSCI/Univ. of Melbourne,     Australia   (Symmetry handling ABACUS, integral transformation)
  Andrew M. Teale,          University of Nottingham,     England     (DFT-AC, DFT-D)
  David P. Tew,             University of Bristol,        England     (CCSD(R12))
  Olav Vahtras,             KTH Stockholm,                Sweden      (triplet response, spin-orbit, ESR, TDDFT, open-shell DFT)
  Lucas Visscher,           Vrije Universiteit Amsterdam, Netherlands (Frozen density embedding model)
  David J. Wilson,          La Trobe University,          Australia   (DFT Hessian and DFT magnetizabilities)
  Hans Agren,               KTH Stockholm,                Sweden      (SIRIUS module, RESPONS, MC-SCRF solvation model)
 --------------------------------------------------------------------------------

     Date and time (Linux)  : Tue Feb 22 08:55:11 2022
     Host name              : xlr178node053.psmn.ens-lyon.fr          

 * Work memory size             :    64000000 =  488.28 megabytes.

 * Directories for basis set searches:
   1) /home/glebreto/Software/Frog/Doc/Tutorial_files/Beta_quadrupole/Submission_script
   2) /applis/PSMN/debian9/software/Local/Dalton/2018.2/full-debian9/basis


Compilation information
-----------------------

 Who compiled             | ccalugar
 Host                     | e5-2670comp1.psmn.ens-lyon.fr
 System                   | Linux-4.9.0-8-amd64
 CMake generator          | Unix Makefiles
 Processor                | x86_64
 64-bit integers          | OFF
 MPI                      | ON
 Fortran compiler         | /usr/bin/mpif90
 Fortran compiler version | GNU Fortran (Debian 6.3.0-18+deb9u1) 6.3.0 2017051
                          | 6
 C compiler               | /usr/bin/mpicc
 C compiler version       | gcc (Debian 6.3.0-18+deb9u1) 6.3.0 20170516
 C++ compiler             | /usr/bin/mpicxx
 C++ compiler version     | unknown
 BLAS                     | /usr/lib/libopenblas.so
 LAPACK                   | /usr/lib/liblapack.so
 Static linking           | OFF
 Last Git revision        | 4aa945ecd235fbf67ed0c1609617c553ef40be89
 Git branch               | (HEAD detached at Dalton2018.2)
 Configuration time       | 2019-03-20 08:31:43.879829

 * Sequential calculation.


   Content of the .dal input file
 ----------------------------------

**DALTON
.RUN WAVE FUNCTIONS
.RUN PROPERTIES
.RUN RESPONSE
.PEQM
*PEQM
**INTEGRALS
.DIPLEN
.SECMOM
**WAVE FUNCTIONS
.DFT
Camb3lyp
*SCF IN
.MAX DIIS
500
*HAMILTONIAN
.FIELD
0.0002442155
XDIPLEN
.FIELD
-0.0013251759
YDIPLEN
.FIELD
-0.0019926627
ZDIPLEN
**RESPONSE
*QUADRA
.APROP
XDIPLEN
.APROP
YDIPLEN
.APROP
ZDIPLEN
.APROP
XXSECMOM
.APROP
XYSECMOM
.APROP
XZSECMOM
.APROP
YYSECMOM
.APROP
YZSECMOM
.APROP
ZZSECMOM
.BPROP
XDIPLEN
.BPROP
YDIPLEN
.BPROP
ZDIPLEN
.CPROP
XDIPLEN
.CPROP
YDIPLEN
.CPROP
ZDIPLEN
.CPROP
XXSECMOM
.CPROP
XYSECMOM
.CPROP
XZSECMOM
.CPROP
YYSECMOM
.CPROP
YZSECMOM
.CPROP
ZZSECMOM
.SHG
.FREQUE
2
0.0 0.05686
**END OF DALTON


   Content of the .mol file
 ----------------------------

BASIS
d-aug-cc-pVTZ
Laboratory frame
Nothing
Atomtypes=2 Angstrom Nosymmetry
Charge=8 Atoms=1
O -0.077726364 0.13344407 -0.0072402954
Charge=1 Atoms=2
H 0.79185677 -0.057883978 -0.3585968
H -0.3581934 -0.68664455 0.39899445


       *******************************************************************
       *********** Output from DALTON general input processing ***********
       *******************************************************************

 --------------------------------------------------------------------------------
   Overall default print level:    0
   Print level for DALTON.STAT:    1

    HERMIT 1- and 2-electron integral sections will be executed
    "Old" integral transformation used (limited to max 255 basis functions)
    Wave function sections will be executed (SIRIUS module)
    Dynamic molecular response properties section will be executed (RESPONSE module)
    Static molecular property section will be executed (ABACUS module)
    Environment is modeled using polarizable embedding scheme (PE library)
 --------------------------------------------------------------------------------


   ****************************************************************************
   *************** Output of molecule and basis set information ***************
   ****************************************************************************


    The two title cards from your ".mol" input:
    ------------------------------------------------------------------------
 1: Laboratory frame                                                        
 2: Nothing                                                                 
    ------------------------------------------------------------------------

  Coordinates are entered in Angstrom and converted to atomic units.
          - Conversion factor : 1 bohr = 0.52917721 A

  Atomic type no.    1
  --------------------
  Nuclear charge:   8.00000
  Number of symmetry independent centers:    1
  Number of basis sets to read;    2
  Basis set file used for this atomic type with Z =   8 :
     "/applis/PSMN/debian9/software/Local/Dalton/2018.2/full-debian9/basis/aug-cc-pVTZ"

  Atomic type no.    2
  --------------------
  Nuclear charge:   1.00000
  Number of symmetry independent centers:    2
  Number of basis sets to read;    2
  Basis set file used for this atomic type with Z =   1 :
     "/applis/PSMN/debian9/software/Local/Dalton/2018.2/full-debian9/basis/aug-cc-pVTZ"


                         SYMGRP: Point group information
                         -------------------------------

@    Point group: C1 


                                 Isotopic Masses
                                 ---------------

                           O          15.994915
                           H           1.007825
                           H           1.007825

                       Total mass:    18.010565 amu
                       Natural abundance:  99.730 %

 Center-of-mass coordinates (a.u.):   -0.084586    0.145221   -0.007879


  Atoms and basis sets
  --------------------

  Number of atom types :    2
  Total number of atoms:    3

  Basis set used is "d-aug-cc-pVTZ" from the basis set library.

  label    atoms   charge   prim   cont     basis
  ----------------------------------------------------------------------
  O           1    8.0000    74    62      [12s7p4d3f|6s5p4d3f]                               
  H           2    1.0000    34    32      [7s4p3d|5s4p3d]                                    
  ----------------------------------------------------------------------
  total:      3   10.0000   142   126
  ----------------------------------------------------------------------
  Spherical harmonic basis used.

  Threshold for neglecting AO integrals:  1.00D-12


  Cartesian Coordinates (a.u.)
  ----------------------------

  Total number of coordinates:    9
  O       :     1  x  -0.1468815407    2  y   0.2521727453    3  z  -0.0136821754
  H       :     4  x   1.4963924255    5  y  -0.1093848654    6  z  -0.6776497413
  H       :     7  x  -0.6768874258    8  y  -1.2975701447    9  z   0.7539902359


   Interatomic separations (in Angstrom):
   --------------------------------------

            O           H           H     
            ------      ------      ------
 O     :    0.000000
 H     :    0.957200    0.000000
 H     :    0.957201    1.513902    0.000000


  Max    interatomic separation is    1.5139 Angstrom (    2.8609 Bohr)
  between atoms    3 and    2, "H     " and "H     ".

  Min HX interatomic separation is    0.9572 Angstrom (    1.8088 Bohr)


  Bond distances (Angstrom):
  --------------------------

                  atom 1     atom 2       distance
                  ------     ------       --------
  bond distance:  H          O            0.957200
  bond distance:  H          O            0.957201


  Bond angles (degrees):
  ----------------------

                  atom 1     atom 2     atom 3         angle
                  ------     ------     ------         -----
  bond angle:     H          O          H            104.520




 Principal moments of inertia (u*A**2) and principal axes
 --------------------------------------------------------

   IA       0.614456          0.759659    0.415325   -0.500423
   IB       1.154917         -0.502761    0.863156   -0.046833
   IC       1.769373          0.412492    0.287170    0.864513


 Rotational constants
 --------------------

@    The molecule is planar.

               A                   B                   C

         822482.1227         437589.0518         285626.0658 MHz
           27.435051           14.596400            9.527460 cm-1


@  Nuclear repulsion energy :    9.194957907207 Hartree

  Reading potential input file for polarizable embedding calculation

    .------------------------------------------------.
    | Information from polarizable embedding library |
    `------------------------------------------------´

      Number of classical sites:    564

      Multipole moments upto 0th order.
      Total charge of classical region:    0.0000
 


                     .---------------------------------------.
                     | Starting in Integral Section (HERMIT) |
                     `---------------------------------------'



 ***************************************************************************************
 ****************** Output from **INTEGRALS input processing (HERMIT) ******************
 ***************************************************************************************



    *************************************************************************
    ****************** Output from HERMIT input processing ******************
    *************************************************************************


 Default print level:        1

 Calculation of one- and two-electron Hamiltonian integrals.

 The following one-electron property integrals are calculated as requested:
          - overlap integrals
          - dipole length integrals
          - second moment integrals

 Center of mass  (bohr):     -0.084585915624      0.145221273921     -0.007879118345
 Operator center (bohr):      0.000000000000      0.000000000000      0.000000000000
 Gauge origin    (bohr):      0.000000000000      0.000000000000      0.000000000000
 Dipole origin   (bohr):      0.000000000000      0.000000000000      0.000000000000


     ************************************************************************
     ************************** Output from HERINT **************************
     ************************************************************************



                      Nuclear contribution to dipole moments
                      --------------------------------------

                 au               Debye          C m (/(10**-30)

      x     -0.35554733        -0.90371110        -3.01445576
      y      0.61042695         1.55155045         5.17541523
      z     -0.03311691        -0.08417478        -0.28077684



 Threshold for neglecting two-electron integrals:  1.00D-12
 HERMIT - Number of two-electron integrals written:    30041570 ( 93.8% )
 HERMIT - Megabytes written:                            343.994

  Time used in TWOINT     is       3.46 seconds
  Total CPU  time used in HERMIT:   3.54 seconds
  Total wall time used in HERMIT:   4.80 seconds


                        .----------------------------------.
                        | End of Integral Section (HERMIT) |
                        `----------------------------------'



                   .--------------------------------------------.
                   | Starting in Wave Function Section (SIRIUS) |
                   `--------------------------------------------'


INFO: switched to AO-direct Fock matrices because long-range corrected models as CAM-B3LYP will not work otherwise.

 *** Output from Huckel module :

     Using EWMO model:          T
     Using EHT  model:          F
     Number of Huckel orbitals each symmetry:    7

 EWMO - Energy Weighted Maximum Overlap - is a Huckel type method,
        which normally is better than Extended Huckel Theory.
 Reference: Linderberg and Ohrn, Propagators in Quantum Chemistry (Wiley, 1973)

 Huckel EWMO eigenvalues for symmetry :  1
          -20.684968      -1.611698      -0.778263      -0.688371      -0.616200
           -0.232269      -0.168130

 **********************************************************************
 *SIRIUS* a direct, restricted step, second order MCSCF program       *
 **********************************************************************

 
     Date and time (Linux)  : Tue Feb 22 08:55:17 2022
     Host name              : xlr178node053.psmn.ens-lyon.fr          

 Title lines from ".mol" input file:
     Laboratory frame                                                        
     Nothing                                                                 

 Print level on unit LUPRI =   2 is   0
 Print level on unit LUW4  =   2 is   5

@    Restricted, closed shell Kohn-Sham DFT calculation.

@    Time-dependent Kohn-Sham DFT calculation (TD-DFT).
 Fock matrices are calculated directly without use of integrals on disk.

@  The molecule is placed in a static field.
@  Field strength (a.u.)          Field operator
@  ---------------------------------------------
@      2.44215500E-04                  XDIPLEN 
@     -1.32517590E-03                  YDIPLEN 
@     -1.99266270E-03                  ZDIPLEN 
@  ---------------------------------------------

 Initial molecular orbitals are obtained according to
 ".MOSTART EWMO  " input option

@    QM part is embedded in an environment :

@         Model: PE

     Wave function specification
     ============================

     Wave function environment is modeled using the
     polarizable embedding model (PE library).

@    Wave function type        --- PE-KS-DFT ---
@    Number of closed shell electrons          10
@    Number of electrons in active shells       0
@    Total charge of the molecule               0

@    Spin multiplicity and 2 M_S                1         0
@    Total number of symmetries                 1 (point group: C1 )
@    Reference state symmetry                   1 (irrep name : A  )
 
     This is a DFT calculation of type: Camb3lyp
 CAM-B3LYP w/ alpha=0.190 beta=0.460 mu=0.330 VwnWeight=0.190 LypWeight=0.810

     Orbital specifications
     ======================
@    Abelian symmetry species          All |    1
@                                          |  A  
                                       --- |  ---
@    Occupied SCF orbitals               5 |    5
@    Secondary orbitals                121 |  121
@    Total number of orbitals          126 |  126
@    Number of basis functions         126 |  126

     Optimization information
     ========================
@    Number of configurations                 1
@    Number of orbital rotations            605
     ------------------------------------------
@    Total number of variables              606

     Maximum number of Fock   iterations      0
     Maximum number of DIIS   iterations    500
     Maximum number of QC-SCF iterations     60
     Threshold for SCF convergence     1.00D-05
 
     This is a DFT calculation of type: Camb3lyp
 CAM-B3LYP w/ alpha=0.190 beta=0.460 mu=0.330 VwnWeight=0.190 LypWeight=0.810


 ***********************************************
 ***** DIIS acceleration of SCF iterations *****
 ***********************************************

 C1-DIIS algorithm; max error vectors =    8

 Iter      Total energy     Embedding energy      Error norm     Delta(E)
 -----------------------------------------------------------------------------

***  INFO  GETGAB: GABAOXXX not found on AOPROPER. Regenerating.
   1  Screening settings (-IFTHRS, JTDIIS, DIFDEN, times)   -8    1    F  6.96D+00  7.00D+00
      K-S energy, electrons, error :     -6.786412395342   9.9999997408   -2.59D-07
@  1  -76.2999403148     -3.736294552991E-02    1.79051D+00   -7.63D+01
      Virial theorem: -V/T =      2.002228
@    MULPOP   O      -0.62; H       0.31; H       0.31; 
   1  Level shift: doubly occupied orbital energies shifted by -2.00D-01
 -----------------------------------------------------------------------------
   2  Screening settings (-IFTHRS, JTDIIS, DIFDEN, times)   -8    2    F  6.88D+00  6.89D+00
      K-S energy, electrons, error :     -6.817359040585   9.9999997543   -2.46D-07
@  2  -76.4654896428     -3.337141352740E-02    4.50543D-01   -1.66D-01
      Virial theorem: -V/T =      2.006632
@    MULPOP   O      -0.45; H       0.21; H       0.24; 
   2  Level shift: doubly occupied orbital energies shifted by -1.00D-01
 -----------------------------------------------------------------------------
   3  Screening settings (-IFTHRS, JTDIIS, DIFDEN, times)   -9    3    F  6.90D+00  6.91D+00
      K-S energy, electrons, error :     -6.821844764958   9.9999997550   -2.45D-07
@  3  -76.4744274662     -3.932085595240E-02    6.56461D-02   -8.94D-03
      Virial theorem: -V/T =      2.005748
@    MULPOP   O      -0.36; H       0.15; H       0.21; 
   3  Level shift: doubly occupied orbital energies shifted by -2.50D-02
 -----------------------------------------------------------------------------
   4  Screening settings (-IFTHRS, JTDIIS, DIFDEN, times)  -10    4    F  6.90D+00  6.92D+00
      K-S energy, electrons, error :     -6.811997619713   9.9999997534   -2.47D-07
@  4  -76.4750847235     -4.011284490678E-02    3.74043D-02   -6.57D-04
      Virial theorem: -V/T =      2.006766
@    MULPOP   O      -0.34; H       0.14; H       0.20; 
   4  Level shift: doubly occupied orbital energies shifted by -2.50D-02
 -----------------------------------------------------------------------------
   5  Screening settings (-IFTHRS, JTDIIS, DIFDEN, times)  -10    5    F  6.90D+00  6.92D+00
      K-S energy, electrons, error :     -6.819534904242   9.9999997540   -2.46D-07
@  5  -76.4751471807     -4.049257811932E-02    1.47702D-02   -6.25D-05
      Virial theorem: -V/T =      2.005843
@    MULPOP   O      -0.35; H       0.15; H       0.20; 
   5  Level shift: doubly occupied orbital energies shifted by -1.25D-02
 -----------------------------------------------------------------------------
   6  Screening settings (-IFTHRS, JTDIIS, DIFDEN, times)  -11    6    F  6.90D+00  6.92D+00
      K-S energy, electrons, error :     -6.817293676539   9.9999997536   -2.46D-07
@  6  -76.4751605046     -4.054077354436E-02    1.10591D-03   -1.33D-05
      Virial theorem: -V/T =      2.006117
@    MULPOP   O      -0.34; H       0.14; H       0.20; 
 -----------------------------------------------------------------------------
   7  Screening settings (-IFTHRS, JTDIIS, DIFDEN, times)  -12    7    F  6.91D+00  6.93D+00
      K-S energy, electrons, error :     -6.817152482882   9.9999997536   -2.46D-07
@  7  -76.4751607573     -4.055093893157E-02    1.16114D-04   -2.53D-07
      Virial theorem: -V/T =      2.006132
@    MULPOP   O      -0.34; H       0.14; H       0.20; 
 -----------------------------------------------------------------------------
   8  Screening settings (-IFTHRS, JTDIIS, DIFDEN, times)  -12    8    F  6.90D+00  6.92D+00
      K-S energy, electrons, error :     -6.817160059055   9.9999997536   -2.46D-07
@  8  -76.4751607598     -4.055190431712E-02    1.41561D-05   -2.53D-09
      Virial theorem: -V/T =      2.006132
@    MULPOP   O      -0.34; H       0.14; H       0.20; 
 -----------------------------------------------------------------------------
   9  Screening settings (-IFTHRS, JTDIIS, DIFDEN, times)  -12    9    F  6.91D+00  6.93D+00
      K-S energy, electrons, error :     -6.817158973719   9.9999997536   -2.46D-07
@  9  -76.4751607598     -4.055184331098E-02    3.65324D-06   -2.86D-11

@ *** DIIS converged in   9 iterations !
@     Converged SCF energy, gradient:    -76.475160759818    3.65D-06
    - total time used in SIRFCK :              0.00 seconds


 *** SCF orbital energy analysis ***
   (incl. contribution from polarizable embedding potential)

 Only the 20 lowest virtual orbital energies printed in each symmetry.

 Number of electrons :   10
 Orbital occupations :    5

 Sym       Kohn-Sham orbital energies

1 A     -19.20577866    -1.09628872    -0.60054254    -0.47704990    -0.39247703
          0.01935054     0.03364193     0.04403764     0.05004074     0.05571780
          0.05806898     0.08382501     0.08949390     0.09598322     0.09803473
          0.10124280     0.10825941     0.12026898     0.12502441     0.16793669
          0.17807580     0.18975352     0.19787801     0.20569379     0.21178234

    E(LUMO) :     0.01935054 au (symmetry 1)
  - E(HOMO) :    -0.39247703 au (symmetry 1)
  ------------------------------------------
    gap     :     0.41182757 au

    .--------------------------------------------------.
    | Final results from polarizable embedding library |
    `--------------------------------------------------´

        Polarizable embedding energy contributions:
       ---------------------------------------------

       Electrostatic contributions:
            Electronic                -0.062825626469
            Nuclear                    0.022273783158
            Multipole                -93.056136024402
            Total                    -93.096687867713

       Total PE energy:               -0.040551843311
            (excl. multipole-multipole interaction energy)

 --- Writing SIRIFC interface file

 CPU and wall time for SCF :      81.068      81.433


                       .-----------------------------------.
                       | --- Final results from SIRIUS --- |
                       `-----------------------------------'


@    Spin multiplicity:           1
@    Spatial symmetry:            1 ( irrep  A   in C1  )
@    Total charge of molecule:    0

 The molecule is placed in a static field.
 Field strength (a.u.)          Field operator
 ---------------------          --------------
    2.44215500E-04                  XDIPLEN 
   -1.32517590E-03                  YDIPLEN 
   -1.99266270E-03                  ZDIPLEN 


@    Final DFT energy:            -76.475160759818                 
@    Nuclear repulsion:             9.194957907207
@    Electronic energy:           -85.629566823714
@    Embedding energy:             -0.040551843311

@    Final gradient norm:           0.000003653237

 
     Date and time (Linux)  : Tue Feb 22 08:56:38 2022
     Host name              : xlr178node053.psmn.ens-lyon.fr          

File label for MO orbitals:  22Feb22   FOCKDIIS

 (Only coefficients > 0.0100 are printed.)

 Molecular orbitals for symmetry species 1  (A  )
 ------------------------------------------------

    Orbital         1        2        3        4        5        6        7
   1 O   :1s    -0.9964   0.0211   0.0002  -0.0017   0.0000   0.0005   0.0008
   2 O   :1s    -0.0003  -0.8341   0.0017   0.2938  -0.0105  -0.1601   0.0150
   4 O   :1s    -0.0056   0.0399   0.0204   0.1655  -0.0022   0.0326   0.1580
   5 O   :1s    -0.0035  -0.0565   0.0290   0.0891   0.0452   0.6222   0.4688
   6 O   :1s    -0.0032  -0.0526   0.0249  -0.0285   0.0268  -0.6948   2.0526
   7 O   :2px   -0.0017  -0.0813  -0.5944  -0.4226   0.4014  -0.0424   0.0257
   8 O   :2py    0.0027   0.1343  -0.3368   0.7239   0.2599   0.0672   0.0124
   9 O   :2pz   -0.0002  -0.0083   0.3992  -0.0222   0.8132  -0.0357  -0.0119
  10 O   :2px    0.0001   0.0032   0.0447   0.0245  -0.0143  -0.0034   0.0109
  11 O   :2py   -0.0001  -0.0044   0.0246  -0.0400  -0.0089  -0.0124  -0.0017
  12 O   :2pz    0.0000   0.0003  -0.0294   0.0017  -0.0294   0.0017  -0.0029
  13 O   :2px    0.0013   0.0224   0.1215   0.0230   0.0078   0.0640   0.2321
  14 O   :2py   -0.0021  -0.0452   0.0537  -0.0579   0.0014  -0.0658   0.0538
  15 O   :2pz    0.0001   0.0072  -0.0708   0.0194  -0.0021  -0.1247  -0.1247
  16 O   :2px    0.0008   0.0018   0.0076  -0.0033   0.0319   0.0809   0.6709
  17 O   :2py   -0.0013  -0.0011   0.0002  -0.0062   0.0100  -0.2226   0.2559
  18 O   :2pz    0.0001   0.0025  -0.0007   0.0125   0.0504   0.0530  -0.5341
  19 O   :2px    0.0000  -0.0002  -0.0012  -0.0035   0.0026  -0.2222   1.4973
  20 O   :2py   -0.0001   0.0017  -0.0012  -0.0046   0.0013  -0.0037   0.6395
  21 O   :2pz    0.0000   0.0000   0.0018   0.0050   0.0033   0.1948  -1.2110
  27 O   :3d2-   0.0001   0.0020   0.0043   0.0120  -0.0032   0.0013  -0.0061
  32 O   :3d2-   0.0001   0.0043  -0.0105  -0.0031   0.0011   0.0138  -0.0392
  33 O   :3d1-  -0.0007  -0.0050   0.0117  -0.0130   0.0072   0.0033   0.0285
  34 O   :3d0   -0.0007  -0.0034  -0.0021  -0.0138   0.0042  -0.0126  -0.0051
  35 O   :3d1+  -0.0010  -0.0049  -0.0076  -0.0091  -0.0027  -0.0655  -0.0042
  36 O   :3d2+   0.0002   0.0016   0.0228  -0.0170   0.0017   0.0085   0.0376
  37 O   :3d2-  -0.0003  -0.0005   0.0015  -0.0108  -0.0016  -0.0168  -0.0667
  38 O   :3d1-   0.0000  -0.0017  -0.0020   0.0096   0.0053  -0.0188   0.0635
  39 O   :3d0   -0.0001  -0.0013   0.0001   0.0035   0.0023   0.0335  -0.0175
  40 O   :3d1+   0.0001   0.0021  -0.0024  -0.0104  -0.0040  -0.1712  -0.0142
  41 O   :3d2+  -0.0002  -0.0037  -0.0024   0.0145   0.0020   0.0713   0.0462
  56 O   :4f3-  -0.0000   0.0023   0.0003  -0.0111   0.0007  -0.0112  -0.0023
  57 O   :4f2-   0.0001  -0.0006  -0.0006   0.0077  -0.0009   0.0265  -0.0051
  60 O   :4f1+  -0.0000   0.0003  -0.0004  -0.0025  -0.0021  -0.0108   0.0014
  62 O   :4f3+   0.0002   0.0001   0.0012   0.0074  -0.0005   0.0185  -0.0065
  63 H   :1s    -0.0035  -0.3945  -0.6031  -0.3690   0.0082   0.0505   0.0068
  64 H   :1s     0.0022   0.1116   0.0473   0.0230  -0.0107  -0.1270  -0.1564
  65 H   :1s     0.0041   0.1723   0.1788   0.0892  -0.0429  -0.3708  -0.7496
  66 H   :1s     0.0021   0.0287   0.0517   0.0558  -0.0316   4.4748  -3.0752
  67 H   :1s     0.0000   0.0002   0.0021   0.0046  -0.0008   0.2332  -6.9414
  68 H   :2px   -0.0002   0.0130   0.0151   0.0076   0.0046   0.0045   0.0001
  71 H   :2px   -0.0020   0.0115   0.0313   0.0197   0.0149   0.0424   0.0454
  72 H   :2py    0.0003  -0.0032  -0.0183   0.0203   0.0082  -0.0154  -0.0192
  73 H   :2pz    0.0008  -0.0049  -0.0105  -0.0165   0.0276   0.0196  -0.0218
  74 H   :2px   -0.0023  -0.0123  -0.0139  -0.0290   0.0088  -0.0076   0.1829
  75 H   :2py    0.0010   0.0003  -0.0072   0.0433   0.0081  -0.0277  -0.1079
  76 H   :2pz    0.0008   0.0027   0.0027   0.0015   0.0167   0.1210  -0.0037
  77 H   :2px   -0.0008  -0.0068  -0.0137  -0.0129   0.0022  -0.5807   0.2976
  78 H   :2py    0.0002   0.0011  -0.0022   0.0062  -0.0034  -0.2477  -0.7171
  79 H   :2pz    0.0003   0.0023   0.0044   0.0001  -0.0071   0.4093   0.2738
  85 H   :3d2-  -0.0003  -0.0009   0.0016  -0.0041  -0.0036   0.0062   0.0144
  87 H   :3d0   -0.0002  -0.0011  -0.0028  -0.0009   0.0064   0.0202   0.0003
  88 H   :3d1+  -0.0003   0.0003   0.0036   0.0049  -0.0053  -0.0407   0.0095
  90 H   :3d2-  -0.0001   0.0007   0.0011  -0.0079   0.0006  -0.0291   0.0387
  91 H   :3d1-  -0.0000  -0.0003   0.0013   0.0004  -0.0019   0.0307  -0.0337
  92 H   :3d0   -0.0002  -0.0003  -0.0001  -0.0096   0.0001  -0.0426   0.0530
  93 H   :3d1+  -0.0004  -0.0019  -0.0012   0.0002  -0.0010  -0.0157  -0.0049
  94 H   :3d2+   0.0003   0.0030   0.0082  -0.0013  -0.0026  -0.0609  -0.0199
  95 H   :1s    -0.0035  -0.3927   0.6100  -0.3422  -0.0007   0.0499  -0.0103
  96 H   :1s     0.0023   0.1047  -0.0678  -0.0011   0.0064  -0.0562   0.1028
  97 H   :1s     0.0042   0.1613  -0.2147   0.0944  -0.0000  -0.3747   0.4709
  98 H   :1s     0.0022   0.0355  -0.0807  -0.0237   0.0030  -3.2506   1.0441
  99 H   :1s     0.0000   0.0008  -0.0028  -0.0031   0.0002   0.3380   6.6397
 101 H   :2py    0.0002  -0.0119   0.0166  -0.0030   0.0031  -0.0031   0.0006
 103 H   :2px    0.0007  -0.0055   0.0023  -0.0172   0.0128  -0.0110  -0.0145
 104 H   :2py    0.0019  -0.0103   0.0337  -0.0128   0.0079  -0.0414   0.0224
 105 H   :2pz   -0.0010   0.0059  -0.0106   0.0114   0.0233   0.0402   0.0006
 106 H   :2px    0.0004  -0.0005  -0.0110   0.0008   0.0162   0.0686  -0.1551
 107 H   :2py    0.0025   0.0142  -0.0138   0.0168   0.0095  -0.0072   0.0858
 108 H   :2pz   -0.0010  -0.0064   0.0150  -0.0131   0.0203  -0.0598   0.0515
 109 H   :2px    0.0002   0.0020  -0.0093  -0.0000  -0.0001  -0.7252  -0.8567
 110 H   :2py    0.0008   0.0073  -0.0151   0.0016  -0.0006  -0.4013   0.1590
 111 H   :2pz   -0.0004  -0.0041   0.0104  -0.0015  -0.0071   0.4847   0.4562
 117 H   :3d2-   0.0003   0.0022  -0.0056  -0.0006   0.0045  -0.0083  -0.0197
 118 H   :3d1-  -0.0004  -0.0031   0.0082  -0.0100   0.0048   0.0308   0.0123
 119 H   :3d0   -0.0001   0.0003  -0.0011  -0.0038  -0.0082  -0.0104  -0.0020
 120 H   :3d1+  -0.0001  -0.0015   0.0043   0.0007   0.0014   0.0206   0.0155
 122 H   :3d2-   0.0002   0.0004  -0.0064   0.0073   0.0037   0.0121  -0.0479
 123 H   :3d1-  -0.0003  -0.0016   0.0060  -0.0093  -0.0012  -0.0941   0.0365
 124 H   :3d0   -0.0002  -0.0007  -0.0012  -0.0013  -0.0012   0.0228   0.0076
 125 H   :3d1+  -0.0002  -0.0017   0.0024   0.0012   0.0019   0.1168   0.0514
 126 H   :3d2+  -0.0002  -0.0008   0.0037  -0.0069   0.0018  -0.0479  -0.0713

    Orbital         8        9       10       11       12       13       14
   2 O   :1s    -0.0983   0.0564  -0.0027   0.0922  -0.0090   0.0029   0.0047
   4 O   :1s     0.5330   0.1270   0.1553   0.1954  -0.2005  -0.2163  -0.5497
   5 O   :1s     2.9939  -0.7080   0.4243  -0.3008  -0.2757  -1.0436  -3.7639
   6 O   :1s    14.8946  -4.2619   1.4072  -2.6647  -0.5714  -6.8405 -20.6721
   7 O   :2px   -0.0591  -0.0146   0.0773   0.0136  -0.0022   0.0199  -0.0263
   8 O   :2py    0.0738   0.0581   0.0331   0.0094   0.0465   0.0103   0.0270
   9 O   :2pz   -0.0206   0.0465  -0.0099  -0.0852  -0.0442  -0.0265  -0.0335
  10 O   :2px    0.0121   0.0036  -0.0157  -0.0045  -0.0014  -0.0065  -0.0090
  11 O   :2py   -0.0280  -0.0077  -0.0156  -0.0124   0.0061   0.0051   0.0222
  12 O   :2pz    0.0005   0.0001   0.0162   0.0050   0.0022   0.0008  -0.0025
  13 O   :2px    0.1731   0.0523  -0.2938   0.0587  -0.0786   0.2109   0.0306
  14 O   :2py   -0.2046  -0.0722  -0.1953  -0.1865   0.1048   0.2541   0.2943
  15 O   :2pz   -0.1033  -0.0113   0.2017   0.1154  -0.0853  -0.2058  -0.2580
  16 O   :2px    0.3469   0.0597  -1.4103   0.1879  -0.5270   0.5411  -0.4975
  17 O   :2py   -0.7215  -0.6179  -0.6294  -0.4566   0.0058   0.7771   0.6071
  18 O   :2pz   -0.0092  -0.3719   0.5588   0.7037  -0.3535  -0.6852  -0.3493
  19 O   :2px    1.0035   0.2631  -3.6159  -0.1649  -0.2894   0.5765   0.0594
  20 O   :2py   -1.1873  -1.4711  -1.6628  -0.8117   0.4942   1.2635   1.8777
  21 O   :2pz   -0.1260  -1.0338   1.2956   1.9904  -0.9389  -1.0059  -1.2607
  28 O   :3d1-  -0.0033  -0.0054  -0.0081  -0.0067   0.0043   0.0101   0.0138
  29 O   :3d0   -0.0065  -0.0028  -0.0032  -0.0103   0.0010   0.0015   0.0042
  30 O   :3d1+  -0.0139  -0.0036   0.0051  -0.0023   0.0031   0.0053   0.0065
  31 O   :3d2+   0.0030  -0.0005  -0.0122  -0.0031   0.0059   0.0105   0.0047
  32 O   :3d2-  -0.0028  -0.0205   0.0444  -0.0129   0.0967  -0.1362  -0.0284
  33 O   :3d1-   0.0201  -0.0014  -0.0490  -0.0247   0.0154   0.1243   0.1433
  34 O   :3d0   -0.0412   0.0081   0.0042  -0.0305  -0.0396   0.0364  -0.0640
  35 O   :3d1+  -0.0624  -0.0252   0.0516   0.0104  -0.0857  -0.0844   0.0939
  36 O   :3d2+   0.0443   0.0042  -0.1043  -0.0075   0.1018   0.1870   0.0541
  37 O   :3d2-   0.0437  -0.0293   0.0191  -0.0594   0.2356  -0.2587   0.0086
  38 O   :3d1-  -0.0473  -0.0512  -0.0091   0.0126  -0.0411   0.1192   0.1166
  39 O   :3d0   -0.0596   0.0193   0.0510  -0.2465  -0.1235   0.1591  -0.1561
  40 O   :3d1+  -0.1183   0.0974   0.0221   0.0888  -0.2619  -0.2038   0.2365
  41 O   :3d2+   0.0343  -0.1612  -0.1200  -0.0790  -0.0357   0.3127  -0.1920
  56 O   :4f3-  -0.0150   0.0017  -0.0072   0.0039  -0.0072  -0.0808  -0.0028
  57 O   :4f2-   0.0234   0.0020   0.0180   0.0201   0.0369   0.0289  -0.0250
  58 O   :4f1-   0.0024  -0.0126  -0.0040   0.0155   0.0172  -0.0238   0.0516
  59 O   :4f0    0.0038  -0.0167  -0.0273  -0.0095   0.0120   0.0400  -0.0070
  60 O   :4f1+  -0.0105   0.0111   0.0064  -0.0157  -0.0023  -0.0078  -0.0017
  61 O   :4f2+  -0.0048  -0.0087   0.0176  -0.0083  -0.0225   0.0068   0.0480
  62 O   :4f3+   0.0283   0.0023  -0.0181   0.0090   0.0434  -0.0200  -0.0063
  63 H   :1s     0.0291  -0.0247   0.0105  -0.0264  -0.0234  -0.0333   0.0116
  64 H   :1s    -0.2635  -0.0925   0.2465  -0.0919  -0.0923  -0.2481   0.0556
  65 H   :1s    -1.3640   0.1511   0.5075  -0.0106  -0.7791  -0.5774   1.0561
  66 H   :1s    -9.8318   3.5283  16.2557   8.2351  -9.8199   1.0226  -9.8433
  67 H   :1s    -0.7434   0.3385   5.4794   2.3043   0.1406  -0.4265  -0.8570
  71 H   :2px    0.1003   0.0240  -0.0522  -0.0030  -0.0161   0.0056  -0.0585
  72 H   :2py   -0.0181  -0.0019   0.0388   0.0179  -0.0271   0.0345   0.0076
  73 H   :2pz   -0.0265   0.0021  -0.0011  -0.0331   0.0024   0.0141  -0.0031
  74 H   :2px    0.2575   0.0828   0.3333  -0.1097  -0.1313  -0.1681  -0.0152
  75 H   :2py   -0.0231   0.1630   0.3739   0.2491  -0.0548   0.4829   0.1292
  76 H   :2pz   -0.1439   0.1006  -0.1755  -0.2838   0.0650   0.3461  -0.4692
  77 H   :2px    1.3050  -0.6278  -1.8880  -1.7673  -0.2310  -0.7133   2.4978
  78 H   :2py    0.0179   0.7717   0.4346   0.2367  -0.0161   1.9570   1.7940
  79 H   :2pz   -0.6825   0.8883   1.0259   0.2301  -0.3827   1.2094  -3.8360
  85 H   :3d2-   0.0025  -0.0042  -0.0233  -0.0246  -0.0056  -0.0337  -0.0029
  86 H   :3d1-  -0.0078   0.0021   0.0114   0.0051   0.0025   0.0075  -0.0082
  87 H   :3d0    0.0107  -0.0015  -0.0065  -0.0262  -0.0107  -0.0137  -0.0159
  88 H   :3d1+  -0.0072  -0.0080   0.0424   0.0366   0.0004  -0.0380  -0.0014
  89 H   :3d2+  -0.0291  -0.0146  -0.0172   0.0110   0.0279   0.0218   0.0192
  90 H   :3d2-  -0.0556  -0.1570  -0.1121  -0.1092   0.1065  -0.1461  -0.0279
  91 H   :3d1-   0.0465   0.0977   0.0640  -0.1158  -0.0133   0.1971   0.1729
  92 H   :3d0   -0.0181   0.0272   0.0410   0.0425   0.0295   0.0179  -0.1838
  93 H   :3d1+   0.0411  -0.1392   0.0953   0.0668  -0.0976  -0.1639   0.3611
  94 H   :3d2+  -0.0567   0.0036  -0.0652   0.1152   0.2939   0.0350  -0.0647
  95 H   :1s     0.0342  -0.0174   0.0060  -0.0324  -0.0137   0.0404   0.0077
  96 H   :1s    -0.1201  -0.0759  -0.2289  -0.1800   0.0240   0.3989   0.3635
  97 H   :1s    -1.0733   0.1182  -0.5679  -0.0989   0.0184   1.3853   2.2829
  98 H   :1s    -4.4006   0.1982 -17.3748  -5.9697  10.0653   6.3125  31.6972
  99 H   :1s    -1.0176   0.4101  -5.9208  -1.9229   0.2859   0.5321   1.2997
 103 H   :2px   -0.0155  -0.0096  -0.0108  -0.0142   0.0900   0.0384   0.0416
 104 H   :2py   -0.0817  -0.0221  -0.0797  -0.0433   0.0020   0.0282   0.1242
 105 H   :2pz    0.0619   0.0014   0.0372   0.0249   0.0053  -0.0425   0.0324
 106 H   :2px    0.0841  -0.1020   0.3135   0.0015   0.8777   0.2091   0.3291
 107 H   :2py   -0.1834   0.2148  -0.1730   0.2030   0.2437  -0.3975   0.7334
 108 H   :2pz    0.1410  -0.0611  -0.0598  -0.0972  -0.0919  -0.3189   0.4130
 109 H   :2px    0.1614  -0.4693  -1.1339  -1.0669   4.2318   0.1910   3.4195
 110 H   :2py   -0.6189   0.6621  -2.6407  -0.7220   1.3922  -1.9167   3.5400
 111 H   :2pz    0.3883   0.3504   1.8792   0.0381  -0.7391  -0.5121   0.1297
 117 H   :3d2-  -0.0110  -0.0069   0.0067   0.0010   0.0669  -0.0053   0.0238
 118 H   :3d1-   0.0442  -0.0006   0.0175   0.0010   0.0089   0.0271   0.0509
 119 H   :3d0   -0.0067   0.0061   0.0024  -0.0026  -0.0162   0.0276  -0.0462
 120 H   :3d1+   0.0178  -0.0008  -0.0090   0.0051  -0.0286   0.0065   0.0151
 121 H   :3d2+   0.0187  -0.0100   0.0284  -0.0002   0.0269   0.0355  -0.0261
 122 H   :3d2-  -0.0031  -0.0667   0.0489  -0.0552   0.2852  -0.0929   0.0612
 123 H   :3d1-  -0.0114  -0.0055   0.0895  -0.0945  -0.1226   0.0241   0.0552
 124 H   :3d0   -0.0096  -0.1107  -0.0083   0.1484  -0.1485   0.1692  -0.1336
 125 H   :3d1+   0.0752  -0.0140  -0.0285  -0.0202  -0.1652   0.0098   0.1744
 126 H   :3d2+   0.0221  -0.1244   0.0561  -0.0415   0.2309   0.2466   0.0070

    Orbital        15
   2 O   :1s     0.0354
   4 O   :1s    -0.1934
   5 O   :1s    -1.6082
   6 O   :1s   -13.7370
   7 O   :2px   -0.0946
   8 O   :2py    0.1157
   9 O   :2pz    0.0165
  13 O   :2px   -0.3492
  14 O   :2py    0.4224
  15 O   :2pz   -0.0113
  16 O   :2px   -1.5154
  17 O   :2py    1.6501
  18 O   :2pz   -0.1010
  19 O   :2px   -2.2993
  20 O   :2py    2.3551
  21 O   :2pz    0.2118
  32 O   :3d2-   0.1003
  33 O   :3d1-   0.0192
  34 O   :3d0    0.1514
  35 O   :3d1+   0.0392
  37 O   :3d2-   0.2159
  38 O   :3d1-  -0.0140
  39 O   :3d0    0.1345
  40 O   :3d1+   0.0967
  41 O   :3d2+  -0.0460
  56 O   :4f3-   0.0259
  57 O   :4f2-  -0.0166
  58 O   :4f1-  -0.0326
  59 O   :4f0   -0.0291
  60 O   :4f1+   0.0182
  61 O   :4f2+   0.0402
  62 O   :4f3+  -0.0246
  63 H   :1s    -0.0153
  64 H   :1s     0.3914
  65 H   :1s     1.3796
  66 H   :1s     8.6029
  67 H   :1s     0.5398
  71 H   :2px   -0.0533
  72 H   :2py   -0.0404
  73 H   :2pz    0.0739
  74 H   :2px    0.3739
  75 H   :2py   -0.4510
  76 H   :2pz    0.2117
  77 H   :2px    1.4451
  78 H   :2py   -0.7116
  79 H   :2pz    0.9678
  85 H   :3d2-   0.0509
  86 H   :3d1-  -0.0225
  87 H   :3d0    0.0296
  88 H   :3d1+  -0.0280
  89 H   :3d2+  -0.0461
  90 H   :3d2-   0.0102
  91 H   :3d1-  -0.0857
  92 H   :3d0    0.2744
  93 H   :3d1+  -0.0293
  94 H   :3d2+  -0.2608
  95 H   :1s    -0.0235
  96 H   :1s     0.2320
  97 H   :1s     0.7676
  98 H   :1s     5.7446
  99 H   :1s    -0.4061
 103 H   :2px    0.0527
 104 H   :2py    0.0152
 105 H   :2pz   -0.0504
 106 H   :2px    0.1269
 107 H   :2py   -0.2817
 108 H   :2pz   -0.1567
 109 H   :2px    0.0332
 110 H   :2py   -0.8534
 111 H   :2pz   -0.8501
 119 H   :3d0    0.0171
 120 H   :3d1+  -0.0157
 121 H   :3d2+   0.0367
 122 H   :3d2-  -0.0532
 123 H   :3d1-   0.0830
 124 H   :3d0    0.1706
 125 H   :3d1+   0.0459
 126 H   :3d2+   0.0653

  Total CPU  time used in SIRIUS :  1 minute  21 seconds
  Total wall time used in SIRIUS :  1 minute  22 seconds

 
     Date and time (Linux)  : Tue Feb 22 08:56:38 2022
     Host name              : xlr178node053.psmn.ens-lyon.fr          

 NOTE:    1 informational messages have been issued.
 Check output, result, and error files for "INFO".


                     .---------------------------------------.
                     | End of Wave Function Section (SIRIUS) |
                     `---------------------------------------'



                 .------------------------------------------------.
                 | Starting in Dynamic Property Section (RESPONS) |
                 `------------------------------------------------'


 ------------------------------------------------------------------------------
  RESPONSE  -  an MCSCF, MC-srDFT, DFT, and SOPPA response property program
 ------------------------------------------------------------------------------


 -------- OUTPUT FROM RESPONSE INPUT PROCESSING --------




 Quadratic Response calculation
 ------------------------------

 First hyperpolarizability calculation : HYPCAL= T

 Spin of operator A , ISPINA=    0
 Spin of operator B , ISPINB=    0
 Spin of operator C , ISPINC=    0

  2 B-frequencies  0.000000D+00  5.686000D-02
  2 C-frequencies  0.000000D+00  5.686000D-02
 Second harmonic generation                     : SHG    = T

 Print level                                    : IPRHYP =   2
 Maximum number of iterations in lin.rsp. solver: MAXITL =  60
 Threshold for convergence of linear resp. eq.s : THCLR  = 1.000D-03
 Maximum iterations in optimal orbital algorithm: MAXITO =   5
 Direct one-index transformation                : DIROIT = T
 Environment is modeled using the polarizable embedding scheme (PE library)

    9 A OPERATORS OF SYMMETRY NO:    1 AND LABELS:

          XDIPLEN 
          YDIPLEN 
          ZDIPLEN 
          XXSECMOM
          XYSECMOM
          XZSECMOM
          YYSECMOM
          YZSECMOM
          ZZSECMOM

    3 B OPERATORS OF SYMMETRY NO:    1 AND LABELS:

          XDIPLEN 
          YDIPLEN 
          ZDIPLEN 

    9 C OPERATORS OF SYMMETRY NO:    1 AND LABELS:

          XDIPLEN 
          YDIPLEN 
          ZDIPLEN 
          XXSECMOM
          XYSECMOM
          XZSECMOM
          YYSECMOM
          YZSECMOM
          ZZSECMOM


   SCF energy         :      -76.475160759818024
 -- inactive part     :      -85.629566823713688
 -- nuclear repulsion :        9.194957907206643


                    *****************************************
                    *** DFT response calculation (TD-DFT) ***
                    *****************************************



 Linear response calculations for quadratic response
 - singlet property operator of symmetry    1  ( A  )


 Perturbation symmetry.     KSYMOP:       1
 Perturbation spin symmetry.TRPLET:       F
 Orbital variables.         KZWOPT:     605
 Configuration variables.   KZCONF:       0
 Total number of variables. KZVAR :     605


 QRLRVE -- linear response calculation for symmetry  1  ( A  )
 QRLRVE -- operator label : XDIPLEN 
 QRLRVE -- operator spin  :   0
 QRLRVE -- frequencies :  0.000000  0.056860  0.113720



 ---  SOLVING SETS OF LINEAR EQUATIONS FOR LINEAR RESPONSE PROPERTIES ---

 Operator symmetry = 1  ( A  ); triplet =   F


 ** RSPCTL MICROITERATION NUMBER    1

       No.  Residual tot.,    conf., and orb.    Bnorm      Frequency 
      ----------------------------------------------------------------
         1    1.12129D+00  0.00D+00  1.12D+00  2.49D+00    0.00000D+00
         2    1.13051D+00  0.00D+00  1.13D+00  2.54D+00    5.68600D-02
         3    1.16034D+00  0.00D+00  1.16D+00  2.72D+00    1.13720D-01

 ** RSPCTL MICROITERATION NUMBER    2

       No.  Residual tot.,    conf., and orb.    Bnorm      Frequency 
      ----------------------------------------------------------------
         1    3.47929D-01  0.00D+00  3.48D-01  2.57D+00    0.00000D+00
         2    3.52897D-01  0.00D+00  3.53D-01  2.62D+00    5.68600D-02
         3    3.69423D-01  0.00D+00  3.69D-01  2.81D+00    1.13720D-01

 ** RSPCTL MICROITERATION NUMBER    3

       No.  Residual tot.,    conf., and orb.    Bnorm      Frequency 
      ----------------------------------------------------------------
         1    6.09089D-02  0.00D+00  6.09D-02  2.58D+00    0.00000D+00
         2    6.25333D-02  0.00D+00  6.25D-02  2.63D+00    5.68600D-02
         3    6.80468D-02  0.00D+00  6.80D-02  2.82D+00    1.13720D-01

 ** RSPCTL MICROITERATION NUMBER    4

       No.  Residual tot.,    conf., and orb.    Bnorm      Frequency 
      ----------------------------------------------------------------
         1    6.98321D-03  0.00D+00  6.98D-03  2.58D+00    0.00000D+00
         2    7.29551D-03  0.00D+00  7.30D-03  2.64D+00    5.68600D-02
         3    8.38131D-03  0.00D+00  8.38D-03  2.82D+00    1.13720D-01

 ** RSPCTL MICROITERATION NUMBER    5

       No.  Residual tot.,    conf., and orb.    Bnorm      Frequency 
      ----------------------------------------------------------------
         1    7.39698D-04  0.00D+00  7.40D-04  2.58D+00    0.00000D+00
         2    7.91433D-04  0.00D+00  7.91D-04  2.64D+00    5.68600D-02
         3    9.76256D-04  0.00D+00  9.76D-04  2.82D+00    1.13720D-01

 *** THE REQUESTED    3 SOLUTION VECTORS CONVERGED

 Convergence of RSP solution vectors, threshold = 1.00D-03
 ---------------------------------------------------------------
 (dimension of paired reduced space:   30)
 RSP solution vector no.    1; norm of residual   2.87D-04
 RSP solution vector no.    2; norm of residual   3.00D-04
 RSP solution vector no.    3; norm of residual   3.46D-04

 *** RSPCTL MICROITERATIONS CONVERGED

@ QRLRVE: SINGLET SOLUTION FOR SYMMETRY    1  ( A  )    LABEL   XDIPLEN     FREQUENCY   0.000000D+00

@ QRLRVE:  << XDIPLEN  ; XDIPLEN  >> (   0.00000):     9.27542928912    

@ QRLRVE:  << YDIPLEN  ; XDIPLEN  >> (   0.00000):   -0.200039930496    

@ QRLRVE:  << ZDIPLEN  ; XDIPLEN  >> (   0.00000):   -9.944708210889E-02

@ QRLRVE:  << XXSECMOM ; XDIPLEN  >> (   0.00000):    0.698287522083    

@ QRLRVE:  << XYSECMOM ; XDIPLEN  >> (   0.00000):    0.685741880991    

@ QRLRVE:  << XZSECMOM ; XDIPLEN  >> (   0.00000):   -0.739082838523    

@ QRLRVE:  << YYSECMOM ; XDIPLEN  >> (   0.00000):    -1.05575915843    

@ QRLRVE:  << YZSECMOM ; XDIPLEN  >> (   0.00000):    0.496842612445    

@ QRLRVE:  << ZZSECMOM ; XDIPLEN  >> (   0.00000):    5.928518649832E-02

@ QRLRVE: SINGLET SOLUTION FOR SYMMETRY    1  ( A  )    LABEL   XDIPLEN     FREQUENCY   0.568600D-01

@ QRLRVE:  << XDIPLEN  ; XDIPLEN  >> (   0.05686):     9.36649815732    

@ QRLRVE:  << YDIPLEN  ; XDIPLEN  >> (   0.05686):   -0.207390382814    

@ QRLRVE:  << ZDIPLEN  ; XDIPLEN  >> (   0.05686):   -7.566715209743E-02

@ QRLRVE:  << XXSECMOM ; XDIPLEN  >> (   0.05686):    0.707899107135    

@ QRLRVE:  << XYSECMOM ; XDIPLEN  >> (   0.05686):    0.692793079560    

@ QRLRVE:  << XZSECMOM ; XDIPLEN  >> (   0.05686):   -0.744348403843    

@ QRLRVE:  << YYSECMOM ; XDIPLEN  >> (   0.05686):    -1.06816634957    

@ QRLRVE:  << YZSECMOM ; XDIPLEN  >> (   0.05686):    0.501889771934    

@ QRLRVE:  << ZZSECMOM ; XDIPLEN  >> (   0.05686):    6.460574279428E-02

@ QRLRVE: SINGLET SOLUTION FOR SYMMETRY    1  ( A  )    LABEL   XDIPLEN     FREQUENCY   0.113720D+00

@ QRLRVE:  << XDIPLEN  ; XDIPLEN  >> (   0.11372):     9.65991248880    

@ QRLRVE:  << YDIPLEN  ; XDIPLEN  >> (   0.11372):   -0.230334544526    

@ QRLRVE:  << ZDIPLEN  ; XDIPLEN  >> (   0.11372):    1.238127151569E-02

@ QRLRVE:  << XXSECMOM ; XDIPLEN  >> (   0.11372):    0.739446013966    

@ QRLRVE:  << XYSECMOM ; XDIPLEN  >> (   0.11372):    0.715282040627    

@ QRLRVE:  << XZSECMOM ; XDIPLEN  >> (   0.11372):   -0.759387778339    

@ QRLRVE:  << YYSECMOM ; XDIPLEN  >> (   0.11372):    -1.10675524328    

@ QRLRVE:  << YZSECMOM ; XDIPLEN  >> (   0.11372):    0.517480963482    

@ QRLRVE:  << ZZSECMOM ; XDIPLEN  >> (   0.11372):    8.636630634719E-02


 QRLRVE -- linear response calculation for symmetry  1  ( A  )
 QRLRVE -- operator label : YDIPLEN 
 QRLRVE -- operator spin  :   0
 QRLRVE -- frequencies :  0.000000  0.056860  0.113720



 ---  SOLVING SETS OF LINEAR EQUATIONS FOR LINEAR RESPONSE PROPERTIES ---

 Operator symmetry = 1  ( A  ); triplet =   F


 ** RSPCTL MICROITERATION NUMBER    1

       No.  Residual tot.,    conf., and orb.    Bnorm      Frequency 
      ----------------------------------------------------------------
         1    1.26076D+00  0.00D+00  1.26D+00  2.63D+00    0.00000D+00
         2    1.26937D+00  0.00D+00  1.27D+00  2.69D+00    5.68600D-02
         3    1.29657D+00  0.00D+00  1.30D+00  2.89D+00    1.13720D-01

 ** RSPCTL MICROITERATION NUMBER    2

       No.  Residual tot.,    conf., and orb.    Bnorm      Frequency 
      ----------------------------------------------------------------
         1    3.39452D-01  0.00D+00  3.39D-01  2.72D+00    0.00000D+00
         2    3.42913D-01  0.00D+00  3.43D-01  2.78D+00    5.68600D-02
         3    3.53875D-01  0.00D+00  3.54D-01  2.98D+00    1.13720D-01

 ** RSPCTL MICROITERATION NUMBER    3

       No.  Residual tot.,    conf., and orb.    Bnorm      Frequency 
      ----------------------------------------------------------------
         1    5.53328D-02  0.00D+00  5.53D-02  2.72D+00    0.00000D+00
         2    5.62044D-02  0.00D+00  5.62D-02  2.79D+00    5.68600D-02
         3    5.89986D-02  0.00D+00  5.90D-02  3.00D+00    1.13720D-01

 ** RSPCTL MICROITERATION NUMBER    4

       No.  Residual tot.,    conf., and orb.    Bnorm      Frequency 
      ----------------------------------------------------------------
         1    6.68461D-03  0.00D+00  6.68D-03  2.72D+00    0.00000D+00
         2    6.90078D-03  0.00D+00  6.90D-03  2.79D+00    5.68600D-02
         3    7.62896D-03  0.00D+00  7.63D-03  3.00D+00    1.13720D-01

 ** RSPCTL MICROITERATION NUMBER    5

       No.  Residual tot.,    conf., and orb.    Bnorm      Frequency 
      ----------------------------------------------------------------
         1    8.90287D-04  0.00D+00  8.90D-04  2.72D+00    0.00000D+00
         2    9.39407D-04  0.00D+00  9.39D-04  2.79D+00    5.68600D-02
         3    1.11226D-03  0.00D+00  1.11D-03  3.00D+00    1.13720D-01

 *** THE REQUESTED    3 SOLUTION VECTORS CONVERGED

 Convergence of RSP solution vectors, threshold = 1.00D-03
 ---------------------------------------------------------------
 (dimension of paired reduced space:   30)
 RSP solution vector no.    1; norm of residual   3.27D-04
 RSP solution vector no.    2; norm of residual   3.37D-04
 RSP solution vector no.    3; norm of residual   3.71D-04

 *** RSPCTL MICROITERATIONS CONVERGED

@ QRLRVE: SINGLET SOLUTION FOR SYMMETRY    1  ( A  )    LABEL   YDIPLEN     FREQUENCY   0.000000D+00

@ QRLRVE:  << XDIPLEN  ; YDIPLEN  >> (   0.00000):   -0.199961534919    

@ QRLRVE:  << YDIPLEN  ; YDIPLEN  >> (   0.00000):     9.75749456679    

@ QRLRVE:  << ZDIPLEN  ; YDIPLEN  >> (   0.00000):   -1.645659321734E-02

@ QRLRVE:  << XXSECMOM ; YDIPLEN  >> (   0.00000):   -9.993914028235E-02

@ QRLRVE:  << XYSECMOM ; YDIPLEN  >> (   0.00000):    -1.27302601689    

@ QRLRVE:  << XZSECMOM ; YDIPLEN  >> (   0.00000):    0.618222389187    

@ QRLRVE:  << YYSECMOM ; YDIPLEN  >> (   0.00000):     2.43367561692    

@ QRLRVE:  << YZSECMOM ; YDIPLEN  >> (   0.00000):    0.993674685023    

@ QRLRVE:  << ZZSECMOM ; YDIPLEN  >> (   0.00000):    0.437932606373    

@ QRLRVE: SINGLET SOLUTION FOR SYMMETRY    1  ( A  )    LABEL   YDIPLEN     FREQUENCY   0.568600D-01

@ QRLRVE:  << XDIPLEN  ; YDIPLEN  >> (   0.05686):   -0.207305156849    

@ QRLRVE:  << YDIPLEN  ; YDIPLEN  >> (   0.05686):     9.86340577206    

@ QRLRVE:  << ZDIPLEN  ; YDIPLEN  >> (   0.05686):    3.759415284324E-04

@ QRLRVE:  << XXSECMOM ; YDIPLEN  >> (   0.05686):   -9.790658685439E-02

@ QRLRVE:  << XYSECMOM ; YDIPLEN  >> (   0.05686):    -1.28382067565    

@ QRLRVE:  << XZSECMOM ; YDIPLEN  >> (   0.05686):    0.627997844974    

@ QRLRVE:  << YYSECMOM ; YDIPLEN  >> (   0.05686):     2.46766304793    

@ QRLRVE:  << YZSECMOM ; YDIPLEN  >> (   0.05686):     1.01344188684    

@ QRLRVE:  << ZZSECMOM ; YDIPLEN  >> (   0.05686):    0.457695641537    

@ QRLRVE: SINGLET SOLUTION FOR SYMMETRY    1  ( A  )    LABEL   YDIPLEN     FREQUENCY   0.113720D+00

@ QRLRVE:  << XDIPLEN  ; YDIPLEN  >> (   0.11372):   -0.230222195280    

@ QRLRVE:  << YDIPLEN  ; YDIPLEN  >> (   0.11372):     10.2049162161    

@ QRLRVE:  << ZDIPLEN  ; YDIPLEN  >> (   0.11372):    6.231869283381E-02

@ QRLRVE:  << XXSECMOM ; YDIPLEN  >> (   0.11372):   -9.101987713374E-02

@ QRLRVE:  << XYSECMOM ; YDIPLEN  >> (   0.11372):    -1.31696084764    

@ QRLRVE:  << XZSECMOM ; YDIPLEN  >> (   0.11372):    0.660422743169    

@ QRLRVE:  << YYSECMOM ; YDIPLEN  >> (   0.11372):     2.57718219862    

@ QRLRVE:  << YZSECMOM ; YDIPLEN  >> (   0.11372):     1.07872719387    

@ QRLRVE:  << ZZSECMOM ; YDIPLEN  >> (   0.11372):    0.526025488180    


 QRLRVE -- linear response calculation for symmetry  1  ( A  )
 QRLRVE -- operator label : ZDIPLEN 
 QRLRVE -- operator spin  :   0
 QRLRVE -- frequencies :  0.000000  0.056860  0.113720



 ---  SOLVING SETS OF LINEAR EQUATIONS FOR LINEAR RESPONSE PROPERTIES ---

 Operator symmetry = 1  ( A  ); triplet =   F


 ** RSPCTL MICROITERATION NUMBER    1

       No.  Residual tot.,    conf., and orb.    Bnorm      Frequency 
      ----------------------------------------------------------------
         1    7.12887D-01  0.00D+00  7.13D-01  2.83D+00    0.00000D+00
         2    7.18824D-01  0.00D+00  7.19D-01  2.92D+00    5.68600D-02
         3    7.40338D-01  0.00D+00  7.40D-01  3.24D+00    1.13720D-01

 ** RSPCTL MICROITERATION NUMBER    2

       No.  Residual tot.,    conf., and orb.    Bnorm      Frequency 
      ----------------------------------------------------------------
         1    2.40319D-01  0.00D+00  2.40D-01  2.86D+00    0.00000D+00
         2    2.48614D-01  0.00D+00  2.49D-01  2.96D+00    5.68600D-02
         3    2.78835D-01  0.00D+00  2.79D-01  3.30D+00    1.13720D-01

 ** RSPCTL MICROITERATION NUMBER    3

       No.  Residual tot.,    conf., and orb.    Bnorm      Frequency 
      ----------------------------------------------------------------
         1    2.24016D-02  0.00D+00  2.24D-02  2.87D+00    0.00000D+00
         2    2.43007D-02  0.00D+00  2.43D-02  2.97D+00    5.68600D-02
         3    3.15766D-02  0.00D+00  3.16D-02  3.31D+00    1.13720D-01

 ** RSPCTL MICROITERATION NUMBER    4

       No.  Residual tot.,    conf., and orb.    Bnorm      Frequency 
      ----------------------------------------------------------------
         1    3.87746D-03  0.00D+00  3.88D-03  2.87D+00    0.00000D+00
         2    4.26177D-03  0.00D+00  4.26D-03  2.97D+00    5.68600D-02
         3    5.74879D-03  0.00D+00  5.75D-03  3.31D+00    1.13720D-01

 ** RSPCTL MICROITERATION NUMBER    5

       No.  Residual tot.,    conf., and orb.    Bnorm      Frequency 
      ----------------------------------------------------------------
         1    6.47137D-04  0.00D+00  6.47D-04  2.87D+00    0.00000D+00
         2    7.08391D-04  0.00D+00  7.08D-04  2.97D+00    5.68600D-02
         3    9.51365D-04  0.00D+00  9.51D-04  3.31D+00    1.13720D-01

 *** THE REQUESTED    3 SOLUTION VECTORS CONVERGED

 Convergence of RSP solution vectors, threshold = 1.00D-03
 ---------------------------------------------------------------
 (dimension of paired reduced space:   30)
 RSP solution vector no.    1; norm of residual   2.25D-04
 RSP solution vector no.    2; norm of residual   2.39D-04
 RSP solution vector no.    3; norm of residual   2.88D-04

 *** RSPCTL MICROITERATIONS CONVERGED

@ QRLRVE: SINGLET SOLUTION FOR SYMMETRY    1  ( A  )    LABEL   ZDIPLEN     FREQUENCY   0.000000D+00

@ QRLRVE:  << XDIPLEN  ; ZDIPLEN  >> (   0.00000):   -9.937423861196E-02

@ QRLRVE:  << YDIPLEN  ; ZDIPLEN  >> (   0.00000):   -1.650547629200E-02

@ QRLRVE:  << ZDIPLEN  ; ZDIPLEN  >> (   0.00000):     9.60254749058    

@ QRLRVE:  << XXSECMOM ; ZDIPLEN  >> (   0.00000):   -0.809703989705    

@ QRLRVE:  << XYSECMOM ; ZDIPLEN  >> (   0.00000):    0.518141977223    

@ QRLRVE:  << XZSECMOM ; ZDIPLEN  >> (   0.00000):   -0.134771512471    

@ QRLRVE:  << YYSECMOM ; ZDIPLEN  >> (   0.00000):    0.842613079388    

@ QRLRVE:  << YZSECMOM ; ZDIPLEN  >> (   0.00000):     1.14882574464    

@ QRLRVE:  << ZZSECMOM ; ZDIPLEN  >> (   0.00000):     1.59456595556    

@ QRLRVE: SINGLET SOLUTION FOR SYMMETRY    1  ( A  )    LABEL   ZDIPLEN     FREQUENCY   0.568600D-01

@ QRLRVE:  << XDIPLEN  ; ZDIPLEN  >> (   0.05686):   -7.559142250154E-02

@ QRLRVE:  << YDIPLEN  ; ZDIPLEN  >> (   0.05686):    3.208183366842E-04

@ QRLRVE:  << ZDIPLEN  ; ZDIPLEN  >> (   0.05686):     9.74006010939    

@ QRLRVE:  << XXSECMOM ; ZDIPLEN  >> (   0.05686):   -0.814894239931    

@ QRLRVE:  << XYSECMOM ; ZDIPLEN  >> (   0.05686):    0.523932977288    

@ QRLRVE:  << XZSECMOM ; ZDIPLEN  >> (   0.05686):   -0.130152665993    

@ QRLRVE:  << YYSECMOM ; ZDIPLEN  >> (   0.05686):    0.859626081106    

@ QRLRVE:  << YZSECMOM ; ZDIPLEN  >> (   0.05686):     1.16749133797    

@ QRLRVE:  << ZZSECMOM ; ZDIPLEN  >> (   0.05686):     1.65272418936    

@ QRLRVE: SINGLET SOLUTION FOR SYMMETRY    1  ( A  )    LABEL   ZDIPLEN     FREQUENCY   0.113720D+00

@ QRLRVE:  << XDIPLEN  ; ZDIPLEN  >> (   0.11372):    1.246454564203E-02

@ QRLRVE:  << YDIPLEN  ; ZDIPLEN  >> (   0.11372):    6.223897059084E-02

@ QRLRVE:  << ZDIPLEN  ; ZDIPLEN  >> (   0.11372):     10.2031820579    

@ QRLRVE:  << XXSECMOM ; ZDIPLEN  >> (   0.11372):   -0.828782311405    

@ QRLRVE:  << XYSECMOM ; ZDIPLEN  >> (   0.11372):    0.542105414452    

@ QRLRVE:  << XZSECMOM ; ZDIPLEN  >> (   0.11372):   -0.112148628551    

@ QRLRVE:  << YYSECMOM ; ZDIPLEN  >> (   0.11372):    0.916438288833    

@ QRLRVE:  << YZSECMOM ; ZDIPLEN  >> (   0.11372):     1.22816952538    

@ QRLRVE:  << ZZSECMOM ; ZDIPLEN  >> (   0.11372):     1.85553129148    


 QRLRVE -- linear response calculation for symmetry  1  ( A  )
 QRLRVE -- operator label : XXSECMOM
 QRLRVE -- operator spin  :   0
 QRLRVE -- frequencies :  0.000000  0.056860  0.113720



 ---  SOLVING SETS OF LINEAR EQUATIONS FOR LINEAR RESPONSE PROPERTIES ---

 Operator symmetry = 1  ( A  ); triplet =   F


 ** RSPCTL MICROITERATION NUMBER    1

       No.  Residual tot.,    conf., and orb.    Bnorm      Frequency 
      ----------------------------------------------------------------
         1    5.16337D+00  0.00D+00  5.16D+00  3.70D+00    0.00000D+00
         2    5.19681D+00  0.00D+00  5.20D+00  3.76D+00    5.68600D-02
         3    5.30186D+00  0.00D+00  5.30D+00  3.95D+00    1.13720D-01

 ** RSPCTL MICROITERATION NUMBER    2

       No.  Residual tot.,    conf., and orb.    Bnorm      Frequency 
      ----------------------------------------------------------------
         1    6.06778D-01  0.00D+00  6.07D-01  4.76D+00    0.00000D+00
         2    6.13057D-01  0.00D+00  6.13D-01  4.85D+00    5.68600D-02
         3    6.33191D-01  0.00D+00  6.33D-01  5.13D+00    1.13720D-01

 ** RSPCTL MICROITERATION NUMBER    3

       No.  Residual tot.,    conf., and orb.    Bnorm      Frequency 
      ----------------------------------------------------------------
         1    9.74971D-02  0.00D+00  9.75D-02  4.78D+00    0.00000D+00
         2    9.93831D-02  0.00D+00  9.94D-02  4.87D+00    5.68600D-02
         3    1.05600D-01  0.00D+00  1.06D-01  5.15D+00    1.13720D-01

 ** RSPCTL MICROITERATION NUMBER    4

       No.  Residual tot.,    conf., and orb.    Bnorm      Frequency 
      ----------------------------------------------------------------
         1    1.45745D-02  0.00D+00  1.46D-02  4.78D+00    0.00000D+00
         2    1.50181D-02  0.00D+00  1.50D-02  4.87D+00    5.68600D-02
         3    1.65096D-02  0.00D+00  1.65D-02  5.16D+00    1.13720D-01

 ** RSPCTL MICROITERATION NUMBER    5

       No.  Residual tot.,    conf., and orb.    Bnorm      Frequency 
      ----------------------------------------------------------------
         1    2.18115D-03  0.00D+00  2.18D-03  4.78D+00    0.00000D+00
         2    2.32571D-03  0.00D+00  2.33D-03  4.87D+00    5.68600D-02
         3    2.83124D-03  0.00D+00  2.83D-03  5.16D+00    1.13720D-01

 *** THE REQUESTED    3 SOLUTION VECTORS CONVERGED

 Convergence of RSP solution vectors, threshold = 1.00D-03
 ---------------------------------------------------------------
 (dimension of paired reduced space:   30)
 RSP solution vector no.    1; norm of residual   4.56D-04
 RSP solution vector no.    2; norm of residual   4.78D-04
 RSP solution vector no.    3; norm of residual   5.49D-04

 *** RSPCTL MICROITERATIONS CONVERGED

@ QRLRVE: SINGLET SOLUTION FOR SYMMETRY    1  ( A  )    LABEL   XXSECMOM    FREQUENCY   0.000000D+00

@ QRLRVE:  << XDIPLEN  ; XXSECMOM >> (   0.00000):    0.698053013300    

@ QRLRVE:  << YDIPLEN  ; XXSECMOM >> (   0.00000):   -0.100301885236    

@ QRLRVE:  << ZDIPLEN  ; XXSECMOM >> (   0.00000):   -0.809868893038    

@ QRLRVE:  << XXSECMOM ; XXSECMOM >> (   0.00000):     32.5075494806    

@ QRLRVE:  << XYSECMOM ; XXSECMOM >> (   0.00000):    -1.29975575768    

@ QRLRVE:  << XZSECMOM ; XXSECMOM >> (   0.00000):    0.937461371467    

@ QRLRVE:  << YYSECMOM ; XXSECMOM >> (   0.00000):     3.47203744204    

@ QRLRVE:  << YZSECMOM ; XXSECMOM >> (   0.00000):    0.954353684795    

@ QRLRVE:  << ZZSECMOM ; XXSECMOM >> (   0.00000):     4.82741561969    

@ QRLRVE: SINGLET SOLUTION FOR SYMMETRY    1  ( A  )    LABEL   XXSECMOM    FREQUENCY   0.568600D-01

@ QRLRVE:  << XDIPLEN  ; XXSECMOM >> (   0.05686):    0.707624577835    

@ QRLRVE:  << YDIPLEN  ; XXSECMOM >> (   0.05686):   -9.830466271326E-02

@ QRLRVE:  << ZDIPLEN  ; XXSECMOM >> (   0.05686):   -0.815101120267    

@ QRLRVE:  << XXSECMOM ; XXSECMOM >> (   0.05686):     32.7937965392    

@ QRLRVE:  << XYSECMOM ; XXSECMOM >> (   0.05686):    -1.31475386143    

@ QRLRVE:  << XZSECMOM ; XXSECMOM >> (   0.05686):     1.00059393465    

@ QRLRVE:  << YYSECMOM ; XXSECMOM >> (   0.05686):     3.52872503739    

@ QRLRVE:  << YZSECMOM ; XXSECMOM >> (   0.05686):    0.972792352913    

@ QRLRVE:  << ZZSECMOM ; XXSECMOM >> (   0.05686):     4.91234945041    

@ QRLRVE: SINGLET SOLUTION FOR SYMMETRY    1  ( A  )    LABEL   XXSECMOM    FREQUENCY   0.113720D+00

@ QRLRVE:  << XDIPLEN  ; XXSECMOM >> (   0.11372):    0.739021092748    

@ QRLRVE:  << YDIPLEN  ; XXSECMOM >> (   0.11372):   -9.153288514390E-02

@ QRLRVE:  << ZDIPLEN  ; XXSECMOM >> (   0.11372):   -0.829148327194    

@ QRLRVE:  << XXSECMOM ; XXSECMOM >> (   0.11372):     33.7037763534    

@ QRLRVE:  << XYSECMOM ; XXSECMOM >> (   0.11372):    -1.35986112116    

@ QRLRVE:  << XZSECMOM ; XXSECMOM >> (   0.11372):     1.21307664835    

@ QRLRVE:  << YYSECMOM ; XXSECMOM >> (   0.11372):     3.71129569961    

@ QRLRVE:  << YZSECMOM ; XXSECMOM >> (   0.11372):     1.03159199145    

@ QRLRVE:  << ZZSECMOM ; XXSECMOM >> (   0.11372):     5.18796634206    


 QRLRVE -- linear response calculation for symmetry  1  ( A  )
 QRLRVE -- operator label : XYSECMOM
 QRLRVE -- operator spin  :   0
 QRLRVE -- frequencies :  0.000000  0.056860  0.113720



 ---  SOLVING SETS OF LINEAR EQUATIONS FOR LINEAR RESPONSE PROPERTIES ---

 Operator symmetry = 1  ( A  ); triplet =   F


 ** RSPCTL MICROITERATION NUMBER    1

       No.  Residual tot.,    conf., and orb.    Bnorm      Frequency 
      ----------------------------------------------------------------
         1    4.71864D-01  0.00D+00  4.72D-01  3.40D+00    0.00000D+00
         2    4.74103D-01  0.00D+00  4.74D-01  3.46D+00    5.68600D-02
         3    4.81542D-01  0.00D+00  4.82D-01  3.65D+00    1.13720D-01

 ** RSPCTL MICROITERATION NUMBER    2

       No.  Residual tot.,    conf., and orb.    Bnorm      Frequency 
      ----------------------------------------------------------------
         1    8.46309D-02  0.00D+00  8.46D-02  3.42D+00    0.00000D+00
         2    8.26782D-02  0.00D+00  8.27D-02  3.48D+00    5.68600D-02
         3    7.68235D-02  0.00D+00  7.68D-02  3.67D+00    1.13720D-01

 ** RSPCTL MICROITERATION NUMBER    3

       No.  Residual tot.,    conf., and orb.    Bnorm      Frequency 
      ----------------------------------------------------------------
         1    1.21800D-02  0.00D+00  1.22D-02  3.42D+00    0.00000D+00
         2    1.18967D-02  0.00D+00  1.19D-02  3.48D+00    5.68600D-02
         3    1.11279D-02  0.00D+00  1.11D-02  3.67D+00    1.13720D-01

 ** RSPCTL MICROITERATION NUMBER    4

       No.  Residual tot.,    conf., and orb.    Bnorm      Frequency 
      ----------------------------------------------------------------
         1    2.36571D-03  0.00D+00  2.37D-03  3.42D+00    0.00000D+00
         2    2.35932D-03  0.00D+00  2.36D-03  3.48D+00    5.68600D-02
         3    2.42231D-03  0.00D+00  2.42D-03  3.67D+00    1.13720D-01

 *** THE REQUESTED    3 SOLUTION VECTORS CONVERGED

 Convergence of RSP solution vectors, threshold = 1.00D-03
 ---------------------------------------------------------------
 (dimension of paired reduced space:   24)
 RSP solution vector no.    1; norm of residual   6.92D-04
 RSP solution vector no.    2; norm of residual   6.78D-04
 RSP solution vector no.    3; norm of residual   6.60D-04

 *** RSPCTL MICROITERATIONS CONVERGED

@ QRLRVE: SINGLET SOLUTION FOR SYMMETRY    1  ( A  )    LABEL   XYSECMOM    FREQUENCY   0.000000D+00

@ QRLRVE:  << XDIPLEN  ; XYSECMOM >> (   0.00000):    0.687006714985    

@ QRLRVE:  << YDIPLEN  ; XYSECMOM >> (   0.00000):    -1.27334032155    

@ QRLRVE:  << ZDIPLEN  ; XYSECMOM >> (   0.00000):    0.518692582249    

@ QRLRVE:  << XXSECMOM ; XYSECMOM >> (   0.00000):    -1.30020885172    

@ QRLRVE:  << XYSECMOM ; XYSECMOM >> (   0.00000):     15.4789152940    

@ QRLRVE:  << XZSECMOM ; XYSECMOM >> (   0.00000):    0.486357489728    

@ QRLRVE:  << YYSECMOM ; XYSECMOM >> (   0.00000):   -0.802687080255    

@ QRLRVE:  << YZSECMOM ; XYSECMOM >> (   0.00000):    0.292903262497    

@ QRLRVE:  << ZZSECMOM ; XYSECMOM >> (   0.00000):   -0.784455840856    

@ QRLRVE: SINGLET SOLUTION FOR SYMMETRY    1  ( A  )    LABEL   XYSECMOM    FREQUENCY   0.568600D-01

@ QRLRVE:  << XDIPLEN  ; XYSECMOM >> (   0.05686):    0.694063808632    

@ QRLRVE:  << YDIPLEN  ; XYSECMOM >> (   0.05686):    -1.28414786926    

@ QRLRVE:  << ZDIPLEN  ; XYSECMOM >> (   0.05686):    0.524544739383    

@ QRLRVE:  << XXSECMOM ; XYSECMOM >> (   0.05686):    -1.31518301831    

@ QRLRVE:  << XYSECMOM ; XYSECMOM >> (   0.05686):     15.6160171511    

@ QRLRVE:  << XZSECMOM ; XYSECMOM >> (   0.05686):    0.507525773243    

@ QRLRVE:  << YYSECMOM ; XYSECMOM >> (   0.05686):   -0.809591967095    

@ QRLRVE:  << YZSECMOM ; XYSECMOM >> (   0.05686):    0.317998046960    

@ QRLRVE:  << ZZSECMOM ; XYSECMOM >> (   0.05686):   -0.804159952952    

@ QRLRVE: SINGLET SOLUTION FOR SYMMETRY    1  ( A  )    LABEL   XYSECMOM    FREQUENCY   0.113720D+00

@ QRLRVE:  << XDIPLEN  ; XYSECMOM >> (   0.11372):    0.716582645018    

@ QRLRVE:  << YDIPLEN  ; XYSECMOM >> (   0.11372):    -1.31732049270    

@ QRLRVE:  << ZDIPLEN  ; XYSECMOM >> (   0.11372):    0.542987179535    

@ QRLRVE:  << XXSECMOM ; XYSECMOM >> (   0.11372):    -1.36018244227    

@ QRLRVE:  << XYSECMOM ; XYSECMOM >> (   0.11372):     16.0519581780    

@ QRLRVE:  << XZSECMOM ; XYSECMOM >> (   0.11372):    0.577945657144    

@ QRLRVE:  << YYSECMOM ; XYSECMOM >> (   0.11372):   -0.828075157879    

@ QRLRVE:  << YZSECMOM ; XYSECMOM >> (   0.11372):    0.403107181278    

@ QRLRVE:  << ZZSECMOM ; XYSECMOM >> (   0.11372):   -0.869109479963    


 QRLRVE -- linear response calculation for symmetry  1  ( A  )
 QRLRVE -- operator label : XZSECMOM
 QRLRVE -- operator spin  :   0
 QRLRVE -- frequencies :  0.000000  0.056860  0.113720



 ---  SOLVING SETS OF LINEAR EQUATIONS FOR LINEAR RESPONSE PROPERTIES ---

 Operator symmetry = 1  ( A  ); triplet =   F


 ** RSPCTL MICROITERATION NUMBER    1

       No.  Residual tot.,    conf., and orb.    Bnorm      Frequency 
      ----------------------------------------------------------------
         1    5.55638D-01  0.00D+00  5.56D-01  3.59D+00    0.00000D+00
         2    5.53106D-01  0.00D+00  5.53D-01  3.67D+00    5.68600D-02
         3    5.45163D-01  0.00D+00  5.45D-01  3.92D+00    1.13720D-01

 ** RSPCTL MICROITERATION NUMBER    2

       No.  Residual tot.,    conf., and orb.    Bnorm      Frequency 
      ----------------------------------------------------------------
         1    8.19031D-02  0.00D+00  8.19D-02  3.61D+00    0.00000D+00
         2    8.00680D-02  0.00D+00  8.01D-02  3.69D+00    5.68600D-02
         3    7.57137D-02  0.00D+00  7.57D-02  3.94D+00    1.13720D-01

 ** RSPCTL MICROITERATION NUMBER    3

       No.  Residual tot.,    conf., and orb.    Bnorm      Frequency 
      ----------------------------------------------------------------
         1    1.77941D-02  0.00D+00  1.78D-02  3.61D+00    0.00000D+00
         2    1.77220D-02  0.00D+00  1.77D-02  3.69D+00    5.68600D-02
         3    1.74914D-02  0.00D+00  1.75D-02  3.94D+00    1.13720D-01

 ** RSPCTL MICROITERATION NUMBER    4

       No.  Residual tot.,    conf., and orb.    Bnorm      Frequency 
      ----------------------------------------------------------------
         1    2.30688D-03  0.00D+00  2.31D-03  3.61D+00    0.00000D+00
         2    2.32561D-03  0.00D+00  2.33D-03  3.69D+00    5.68600D-02
         3    2.40008D-03  0.00D+00  2.40D-03  3.94D+00    1.13720D-01

 *** THE REQUESTED    3 SOLUTION VECTORS CONVERGED

 Convergence of RSP solution vectors, threshold = 1.00D-03
 ---------------------------------------------------------------
 (dimension of paired reduced space:   24)
 RSP solution vector no.    1; norm of residual   6.39D-04
 RSP solution vector no.    2; norm of residual   6.31D-04
 RSP solution vector no.    3; norm of residual   6.09D-04

 *** RSPCTL MICROITERATIONS CONVERGED

@ QRLRVE: SINGLET SOLUTION FOR SYMMETRY    1  ( A  )    LABEL   XZSECMOM    FREQUENCY   0.000000D+00

@ QRLRVE:  << XDIPLEN  ; XZSECMOM >> (   0.00000):   -0.739752249612    

@ QRLRVE:  << YDIPLEN  ; XZSECMOM >> (   0.00000):    0.618534788307    

@ QRLRVE:  << ZDIPLEN  ; XZSECMOM >> (   0.00000):   -0.134927124510    

@ QRLRVE:  << XXSECMOM ; XZSECMOM >> (   0.00000):    0.937709292403    

@ QRLRVE:  << XYSECMOM ; XZSECMOM >> (   0.00000):    0.486286822216    

@ QRLRVE:  << XZSECMOM ; XZSECMOM >> (   0.00000):     15.9120431903    

@ QRLRVE:  << YYSECMOM ; XZSECMOM >> (   0.00000):     1.20860656508    

@ QRLRVE:  << YZSECMOM ; XZSECMOM >> (   0.00000):   -0.728308811919    

@ QRLRVE:  << ZZSECMOM ; XZSECMOM >> (   0.00000):     1.84308428778    

@ QRLRVE: SINGLET SOLUTION FOR SYMMETRY    1  ( A  )    LABEL   XZSECMOM    FREQUENCY   0.568600D-01

@ QRLRVE:  << XDIPLEN  ; XZSECMOM >> (   0.05686):   -0.745052708092    

@ QRLRVE:  << YDIPLEN  ; XZSECMOM >> (   0.05686):    0.628343149310    

@ QRLRVE:  << ZDIPLEN  ; XZSECMOM >> (   0.05686):   -0.130344213504    

@ QRLRVE:  << XXSECMOM ; XZSECMOM >> (   0.05686):     1.00084508614    

[...]
@ A operator, symmetry, spin: XXSECMOM    1    0
@ B operator, symmetry, spin: YDIPLEN     1    0
@ C operator, symmetry, spin: ZZSECMOM    1    0

@ omega B, omega C, QR value :     0.00000000     0.00000000     9.31587376


@ Quadratic response function value in a.u. for
@ A operator, symmetry, spin: XYSECMOM    1    0
@ B operator, symmetry, spin: YDIPLEN     1    0
@ C operator, symmetry, spin: ZZSECMOM    1    0

@ omega B, omega C, QR value :     0.00000000     0.00000000     3.39019955


@ Quadratic response function value in a.u. for
@ A operator, symmetry, spin: XZSECMOM    1    0
@ B operator, symmetry, spin: YDIPLEN     1    0
@ C operator, symmetry, spin: ZZSECMOM    1    0

@ omega B, omega C, QR value :     0.00000000     0.00000000     1.33519225


@ Quadratic response function value in a.u. for
@ A operator, symmetry, spin: YYSECMOM    1    0
@ B operator, symmetry, spin: YDIPLEN     1    0
@ C operator, symmetry, spin: ZZSECMOM    1    0

@ omega B, omega C, QR value :     0.00000000     0.00000000    36.26591871


@ Quadratic response function value in a.u. for
@ A operator, symmetry, spin: YZSECMOM    1    0
@ B operator, symmetry, spin: YDIPLEN     1    0
@ C operator, symmetry, spin: ZZSECMOM    1    0

@ omega B, omega C, QR value :     0.00000000     0.00000000    44.07996549


@ Quadratic response function value in a.u. for
@ A operator, symmetry, spin: ZZSECMOM    1    0
@ B operator, symmetry, spin: YDIPLEN     1    0
@ C operator, symmetry, spin: ZZSECMOM    1    0

@ omega B, omega C, QR value :     0.00000000     0.00000000    35.84728253


 Quadratic response function value in a.u. for
 A operator, symmetry, frequency:   XDIPLEN    1 -0.000000
 B operator, symmetry, frequency:   ZDIPLEN    1  0.000000
 C operator, symmetry, frequency:   ZZSECMOM   1  0.000000

 is equal to the already calculated

 Quadratic response function value in a.u. for
 A operator, symmetry, frequency:   ZZSECMOM   1 -0.000000
 B operator, symmetry, frequency:   ZDIPLEN    1  0.000000
 C operator, symmetry, frequency:   XDIPLEN    1  0.000000


 Quadratic response function value in a.u. for
 A operator, symmetry, frequency:   YDIPLEN    1 -0.000000
 B operator, symmetry, frequency:   ZDIPLEN    1  0.000000
 C operator, symmetry, frequency:   ZZSECMOM   1  0.000000

 is equal to the already calculated

 Quadratic response function value in a.u. for
 A operator, symmetry, frequency:   ZZSECMOM   1 -0.000000
 B operator, symmetry, frequency:   ZDIPLEN    1  0.000000
 C operator, symmetry, frequency:   YDIPLEN    1  0.000000


 Quadratic response function value in a.u. for
 A operator, symmetry, frequency:   ZDIPLEN    1 -0.000000
 B operator, symmetry, frequency:   ZDIPLEN    1  0.000000
 C operator, symmetry, frequency:   ZZSECMOM   1  0.000000

 is equal to the already calculated

 Quadratic response function value in a.u. for
 A operator, symmetry, frequency:   ZZSECMOM   1 -0.000000
 B operator, symmetry, frequency:   ZDIPLEN    1  0.000000
 C operator, symmetry, frequency:   ZDIPLEN    1  0.000000


 Quadratic response function value in a.u. for
 A operator, symmetry, frequency:   XXSECMOM   1 -0.000000
 B operator, symmetry, frequency:   ZDIPLEN    1  0.000000
 C operator, symmetry, frequency:   ZZSECMOM   1  0.000000

 is equal to the already calculated

 Quadratic response function value in a.u. for
 A operator, symmetry, frequency:   ZZSECMOM   1 -0.000000
 B operator, symmetry, frequency:   ZDIPLEN    1  0.000000
 C operator, symmetry, frequency:   XXSECMOM   1  0.000000


 Quadratic response function value in a.u. for
 A operator, symmetry, frequency:   XYSECMOM   1 -0.000000
 B operator, symmetry, frequency:   ZDIPLEN    1  0.000000
 C operator, symmetry, frequency:   ZZSECMOM   1  0.000000

 is equal to the already calculated

 Quadratic response function value in a.u. for
 A operator, symmetry, frequency:   ZZSECMOM   1 -0.000000
 B operator, symmetry, frequency:   ZDIPLEN    1  0.000000
 C operator, symmetry, frequency:   XYSECMOM   1  0.000000


 Quadratic response function value in a.u. for
 A operator, symmetry, frequency:   XZSECMOM   1 -0.000000
 B operator, symmetry, frequency:   ZDIPLEN    1  0.000000
 C operator, symmetry, frequency:   ZZSECMOM   1  0.000000

 is equal to the already calculated

 Quadratic response function value in a.u. for
 A operator, symmetry, frequency:   ZZSECMOM   1 -0.000000
 B operator, symmetry, frequency:   ZDIPLEN    1  0.000000
 C operator, symmetry, frequency:   XZSECMOM   1  0.000000


 Quadratic response function value in a.u. for
 A operator, symmetry, frequency:   YYSECMOM   1 -0.000000
 B operator, symmetry, frequency:   ZDIPLEN    1  0.000000
 C operator, symmetry, frequency:   ZZSECMOM   1  0.000000

 is equal to the already calculated

 Quadratic response function value in a.u. for
 A operator, symmetry, frequency:   ZZSECMOM   1 -0.000000
 B operator, symmetry, frequency:   ZDIPLEN    1  0.000000
 C operator, symmetry, frequency:   YYSECMOM   1  0.000000


 Quadratic response function value in a.u. for
 A operator, symmetry, frequency:   YZSECMOM   1 -0.000000
 B operator, symmetry, frequency:   ZDIPLEN    1  0.000000
 C operator, symmetry, frequency:   ZZSECMOM   1  0.000000

 is equal to the already calculated

 Quadratic response function value in a.u. for
 A operator, symmetry, frequency:   ZZSECMOM   1 -0.000000
 B operator, symmetry, frequency:   ZDIPLEN    1  0.000000
 C operator, symmetry, frequency:   YZSECMOM   1  0.000000


@ Quadratic response function value in a.u. for
@ A operator, symmetry, spin: XDIPLEN     1    0
@ B operator, symmetry, spin: ZDIPLEN     1    0
@ C operator, symmetry, spin: ZZSECMOM    1    0

@ omega B, omega C, QR value :     0.00000000     0.00000000    30.21379598


@ Quadratic response function value in a.u. for
@ A operator, symmetry, spin: YDIPLEN     1    0
@ B operator, symmetry, spin: ZDIPLEN     1    0
@ C operator, symmetry, spin: ZZSECMOM    1    0

@ omega B, omega C, QR value :     0.00000000     0.00000000    19.44389865


@ Quadratic response function value in a.u. for
@ A operator, symmetry, spin: ZDIPLEN     1    0
@ B operator, symmetry, spin: ZDIPLEN     1    0
@ C operator, symmetry, spin: ZZSECMOM    1    0

@ omega B, omega C, QR value :     0.00000000     0.00000000   288.78201624


@ Quadratic response function value in a.u. for
@ A operator, symmetry, spin: XXSECMOM    1    0
@ B operator, symmetry, spin: ZDIPLEN     1    0
@ C operator, symmetry, spin: ZZSECMOM    1    0

@ omega B, omega C, QR value :     0.00000000     0.00000000    12.55548532


@ Quadratic response function value in a.u. for
@ A operator, symmetry, spin: XYSECMOM    1    0
@ B operator, symmetry, spin: ZDIPLEN     1    0
@ C operator, symmetry, spin: ZZSECMOM    1    0

@ omega B, omega C, QR value :     0.00000000     0.00000000    -2.84515552


@ Quadratic response function value in a.u. for
@ A operator, symmetry, spin: XZSECMOM    1    0
@ B operator, symmetry, spin: ZDIPLEN     1    0
@ C operator, symmetry, spin: ZZSECMOM    1    0

@ omega B, omega C, QR value :     0.00000000     0.00000000    -7.97893212


@ Quadratic response function value in a.u. for
@ A operator, symmetry, spin: YYSECMOM    1    0
@ B operator, symmetry, spin: ZDIPLEN     1    0
@ C operator, symmetry, spin: ZZSECMOM    1    0

@ omega B, omega C, QR value :     0.00000000     0.00000000    29.20082801


@ Quadratic response function value in a.u. for
@ A operator, symmetry, spin: YZSECMOM    1    0
@ B operator, symmetry, spin: ZDIPLEN     1    0
@ C operator, symmetry, spin: ZZSECMOM    1    0

@ omega B, omega C, QR value :     0.00000000     0.00000000    57.24266242


@ Quadratic response function value in a.u. for
@ A operator, symmetry, spin: ZZSECMOM    1    0
@ B operator, symmetry, spin: ZDIPLEN     1    0
@ C operator, symmetry, spin: ZZSECMOM    1    0

@ omega B, omega C, QR value :     0.00000000     0.00000000   187.58783071


@ Quadratic response function value in a.u. for
@ A operator, symmetry, spin: XDIPLEN     1    0
@ B operator, symmetry, spin: XDIPLEN     1    0
@ C operator, symmetry, spin: ZZSECMOM    1    0

@ omega B, omega C, QR value :     0.05686000     0.05686000    58.29708628


@ Quadratic response function value in a.u. for
@ A operator, symmetry, spin: YDIPLEN     1    0
@ B operator, symmetry, spin: XDIPLEN     1    0
@ C operator, symmetry, spin: ZZSECMOM    1    0

@ omega B, omega C, QR value :     0.05686000     0.05686000    -7.87531711


@ Quadratic response function value in a.u. for
@ A operator, symmetry, spin: ZDIPLEN     1    0
@ B operator, symmetry, spin: XDIPLEN     1    0
@ C operator, symmetry, spin: ZZSECMOM    1    0

@ omega B, omega C, QR value :     0.05686000     0.05686000    36.26154114


@ Quadratic response function value in a.u. for
@ A operator, symmetry, spin: XXSECMOM    1    0
@ B operator, symmetry, spin: XDIPLEN     1    0
@ C operator, symmetry, spin: ZZSECMOM    1    0

@ omega B, omega C, QR value :     0.05686000     0.05686000    -1.02367387


@ Quadratic response function value in a.u. for
@ A operator, symmetry, spin: XYSECMOM    1    0
@ B operator, symmetry, spin: XDIPLEN     1    0
@ C operator, symmetry, spin: ZZSECMOM    1    0

@ omega B, omega C, QR value :     0.05686000     0.05686000    15.33837874


@ Quadratic response function value in a.u. for
@ A operator, symmetry, spin: XZSECMOM    1    0
@ B operator, symmetry, spin: XDIPLEN     1    0
@ C operator, symmetry, spin: ZZSECMOM    1    0

@ omega B, omega C, QR value :     0.05686000     0.05686000    22.27575579


@ Quadratic response function value in a.u. for
@ A operator, symmetry, spin: YYSECMOM    1    0
@ B operator, symmetry, spin: XDIPLEN     1    0
@ C operator, symmetry, spin: ZZSECMOM    1    0

@ omega B, omega C, QR value :     0.05686000     0.05686000     4.66274875


@ Quadratic response function value in a.u. for
@ A operator, symmetry, spin: YZSECMOM    1    0
@ B operator, symmetry, spin: XDIPLEN     1    0
@ C operator, symmetry, spin: ZZSECMOM    1    0

@ omega B, omega C, QR value :     0.05686000     0.05686000     0.78742312


@ Quadratic response function value in a.u. for
@ A operator, symmetry, spin: ZZSECMOM    1    0
@ B operator, symmetry, spin: XDIPLEN     1    0
@ C operator, symmetry, spin: ZZSECMOM    1    0

@ omega B, omega C, QR value :     0.05686000     0.05686000     3.61920005


@ Quadratic response function value in a.u. for
@ A operator, symmetry, spin: XDIPLEN     1    0
@ B operator, symmetry, spin: YDIPLEN     1    0
@ C operator, symmetry, spin: ZZSECMOM    1    0

@ omega B, omega C, QR value :     0.05686000     0.05686000    -7.89449639


@ Quadratic response function value in a.u. for
@ A operator, symmetry, spin: YDIPLEN     1    0
@ B operator, symmetry, spin: YDIPLEN     1    0
@ C operator, symmetry, spin: ZZSECMOM    1    0

@ omega B, omega C, QR value :     0.05686000     0.05686000    61.39716637


@ Quadratic response function value in a.u. for
@ A operator, symmetry, spin: ZDIPLEN     1    0
@ B operator, symmetry, spin: YDIPLEN     1    0
@ C operator, symmetry, spin: ZZSECMOM    1    0

@ omega B, omega C, QR value :     0.05686000     0.05686000    22.76509561


@ Quadratic response function value in a.u. for
@ A operator, symmetry, spin: XXSECMOM    1    0
@ B operator, symmetry, spin: YDIPLEN     1    0
@ C operator, symmetry, spin: ZZSECMOM    1    0

@ omega B, omega C, QR value :     0.05686000     0.05686000    10.08348732


@ Quadratic response function value in a.u. for
@ A operator, symmetry, spin: XYSECMOM    1    0
@ B operator, symmetry, spin: YDIPLEN     1    0
@ C operator, symmetry, spin: ZZSECMOM    1    0

@ omega B, omega C, QR value :     0.05686000     0.05686000     4.03029901


@ Quadratic response function value in a.u. for
@ A operator, symmetry, spin: XZSECMOM    1    0
@ B operator, symmetry, spin: YDIPLEN     1    0
@ C operator, symmetry, spin: ZZSECMOM    1    0

@ omega B, omega C, QR value :     0.05686000     0.05686000     1.30035591


@ Quadratic response function value in a.u. for
@ A operator, symmetry, spin: YYSECMOM    1    0
@ B operator, symmetry, spin: YDIPLEN     1    0
@ C operator, symmetry, spin: ZZSECMOM    1    0

@ omega B, omega C, QR value :     0.05686000     0.05686000    40.68931769


@ Quadratic response function value in a.u. for
@ A operator, symmetry, spin: YZSECMOM    1    0
@ B operator, symmetry, spin: YDIPLEN     1    0
@ C operator, symmetry, spin: ZZSECMOM    1    0

@ omega B, omega C, QR value :     0.05686000     0.05686000    50.34348810


@ Quadratic response function value in a.u. for
@ A operator, symmetry, spin: ZZSECMOM    1    0
@ B operator, symmetry, spin: YDIPLEN     1    0
@ C operator, symmetry, spin: ZZSECMOM    1    0

@ omega B, omega C, QR value :     0.05686000     0.05686000    40.29707023


@ Quadratic response function value in a.u. for
@ A operator, symmetry, spin: XDIPLEN     1    0
@ B operator, symmetry, spin: ZDIPLEN     1    0
@ C operator, symmetry, spin: ZZSECMOM    1    0

@ omega B, omega C, QR value :     0.05686000     0.05686000    40.03106935


@ Quadratic response function value in a.u. for
@ A operator, symmetry, spin: YDIPLEN     1    0
@ B operator, symmetry, spin: ZDIPLEN     1    0
@ C operator, symmetry, spin: ZZSECMOM    1    0

@ omega B, omega C, QR value :     0.05686000     0.05686000    25.47298668


@ Quadratic response function value in a.u. for
@ A operator, symmetry, spin: ZDIPLEN     1    0
@ B operator, symmetry, spin: ZDIPLEN     1    0
@ C operator, symmetry, spin: ZZSECMOM    1    0

@ omega B, omega C, QR value :     0.05686000     0.05686000   332.52768136


@ Quadratic response function value in a.u. for
@ A operator, symmetry, spin: XXSECMOM    1    0
@ B operator, symmetry, spin: ZDIPLEN     1    0
@ C operator, symmetry, spin: ZZSECMOM    1    0

@ omega B, omega C, QR value :     0.05686000     0.05686000    15.49573970


@ Quadratic response function value in a.u. for
@ A operator, symmetry, spin: XYSECMOM    1    0
@ B operator, symmetry, spin: ZDIPLEN     1    0
@ C operator, symmetry, spin: ZZSECMOM    1    0

@ omega B, omega C, QR value :     0.05686000     0.05686000    -3.42996988


@ Quadratic response function value in a.u. for
@ A operator, symmetry, spin: XZSECMOM    1    0
@ B operator, symmetry, spin: ZDIPLEN     1    0
@ C operator, symmetry, spin: ZZSECMOM    1    0

@ omega B, omega C, QR value :     0.05686000     0.05686000    -7.03217490


@ Quadratic response function value in a.u. for
@ A operator, symmetry, spin: YYSECMOM    1    0
@ B operator, symmetry, spin: ZDIPLEN     1    0
@ C operator, symmetry, spin: ZZSECMOM    1    0

@ omega B, omega C, QR value :     0.05686000     0.05686000    34.85085651


@ Quadratic response function value in a.u. for
@ A operator, symmetry, spin: YZSECMOM    1    0
@ B operator, symmetry, spin: ZDIPLEN     1    0
@ C operator, symmetry, spin: ZZSECMOM    1    0

@ omega B, omega C, QR value :     0.05686000     0.05686000    64.60185695


@ Quadratic response function value in a.u. for
@ A operator, symmetry, spin: ZZSECMOM    1    0
@ B operator, symmetry, spin: ZDIPLEN     1    0
@ C operator, symmetry, spin: ZZSECMOM    1    0

@ omega B, omega C, QR value :     0.05686000     0.05686000   221.71394879

  Total CPU  time used in RESPONSE: 25 minutes 47 seconds
  Total wall time used in RESPONSE:   1 hour  19 minutes 44 seconds


                   .-------------------------------------------.
                   | End of Dynamic Property Section (RESPONS) |
                   `-------------------------------------------'


 Center of mass dipole origin  :   -0.084586    0.145221   -0.007879

 Center of mass gauge origin   :   -0.084586    0.145221   -0.007879


                 .------------------------------------------------.
                 | Starting in Static Property Section (ABACUS) - |
                 `------------------------------------------------'


 
     Date and time (Linux)  : Tue Feb 22 10:16:22 2022
     Host name              : xlr178node053.psmn.ens-lyon.fr          


   ***************************************************************************
   ************************ FINAL RESULTS from ABACUS ************************
   ***************************************************************************


 
     Date and time (Linux)  : Tue Feb 22 10:16:22 2022
     Host name              : xlr178node053.psmn.ens-lyon.fr          


                             Molecular geometry (au)
                             -----------------------

 O         -0.1468815407            0.2521727453           -0.0136821754
 H          1.4963924255           -0.1093848654           -0.6776497413
 H         -0.6768874258           -1.2975701447            0.7539902359





                        Molecular wave function and energy
                        ----------------------------------

     Spatial symmetry   1 ( A   )
     Spin multiplicity  1
     2 * M_S            0
     State number       1
     Total charge       0

     Total energy        -76.4751607598 au (Hartrees)
                         -2080.99498195 eV
                           -200785.5036 kJ/mol
                            -47988.8871 kcal/mol


                   Scalar Breit-Pauli relativistic corrections
                   -------------------------------------------

     Darwin correction:                          0.1991408305 au
     Mass-velocity correction:                  -0.2506142000 au

     Total relativistic correction:             -0.0514733695 au ( 0.0673%)
     Non-relativistic + relativistic energy:   -76.5266341293 au



      (Note that these corrections are NOT included in the results below.)


                                  Dipole moment
                                  -------------

                 au               Debye          C m (/(10**-30)
              1.013726           2.576635           8.594729


                             Dipole moment components
                             ------------------------

                 au               Debye          C m (/(10**-30)

      x      0.45560305         1.15802738         3.86276355
      y     -0.90518967        -2.30076251        -7.67451765
      z      0.02642843         0.06717437         0.22406956


   Units:   1 a.u. =   2.54175 Debye 
            1 a.u. =   8.47835 (10**-30) C m (SI)




   Interatomic separations (in Angstrom):
   --------------------------------------

            O           H           H     
            ------      ------      ------
 O     :    0.000000
 H     :    0.957200    0.000000
 H     :    0.957201    1.513902    0.000000


  Max    interatomic separation is    1.5139 Angstrom (    2.8609 Bohr)
  between atoms    3 and    2, "H     " and "H     ".

  Min HX interatomic separation is    0.9572 Angstrom (    1.8088 Bohr)


  Bond distances (Angstrom):
  --------------------------

                  atom 1     atom 2       distance
                  ------     ------       --------
  bond distance:  H          O            0.957200
  bond distance:  H          O            0.957201


  Bond angles (degrees):
  ----------------------

                  atom 1     atom 2     atom 3         angle
                  ------     ------     ------         -----
  bond angle:     H          O          H            104.520


  Total CPU  time used in ABACUS:   0.06 seconds
  Total wall time used in ABACUS:   0.11 seconds


                   .-------------------------------------------.
                   | End of Static Property Section (ABACUS) - |
                   `-------------------------------------------'

  Total CPU  time used in DALTON: 27 minutes 12 seconds
  Total wall time used in DALTON:   1 hour  21 minutes 11 seconds

 
     Date and time (Linux)  : Tue Feb 22 10:16:22 2022
     Host name              : xlr178node053.psmn.ens-lyon.fr          
