LAMMPS Description

7200  atoms
5200  bonds
4400  angles
1200  dihedrals
0  impropers

908  atom types
380  bond types
1018  angle types
800  dihedral types
6  improper types

0.0 50 xlo xhi
0.0 50 ylo yhi
0.0 50 zlo zhi

Masses

1 15.9994
2 1.008
3 18.998
4 14.027
5 12.011
6 15.999
7 15.999
8 15.035
9 1.008
10 16.043
11 15.035
12 15.035
13 15.035
14 15.035
15 14.027
16 14.027
17 13.019
18 13.019
19 13.019
20 12.011
21 12.011
22 15.999
23 1.008
24 15.035
25 14.027
26 32.06
27 32.06
28 32.06
29 32.06
30 1.008
31 1.008
32 15.035
33 14.027
34 15.035
35 14.027
36 15.035
37 14.027
38 14.007
39 12.011
40 15.035
41 13.019
42 12.011
43 15.999
44 15.035
45 14.027
46 14.027
47 35.453
48 12.011
49 35.453
50 12.011
51 35.453
52 32.06
53 15.999
54 15.035
55 15.999
56 14.007
57 12.011
58 15.035
59 1.0
60 4.003
61 20.179
62 39.948
63 83.8
64 131.3
65 15.999
66 1.008
67 15.999
68 1.008
69 1e-30
70 15.999
71 1.008
72 15.999
73 1.008
74 1e-30
75 15.999
76 1.008
77 1e-30
78 15.999
79 1.008
80 14.007
81 1.008
82 12.011
83 12.011
84 12.011
85 12.011
86 12.011
87 1.008
88 12.011
89 12.011
90 12.011
91 1.008
92 12.011
93 1.008
94 12.011
95 12.011
96 12.011
97 12.011
98 15.999
99 1.008
100 1.008
101 12.011
102 12.011
103 12.011
104 12.011
105 12.011
106 15.999
107 1.008
108 18.998
109 1.008
110 12.011
111 15.999
112 1.008
113 15.999
114 1.008
115 15.999
116 1.008
117 12.011
118 12.011
119 12.011
120 1.008
121 15.999
122 12.011
123 15.999
124 15.999
125 12.011
126 12.011
127 12.011
128 12.011
129 1.008
130 15.999
131 15.999
132 1.008
133 12.011
134 1.008
135 12.011
136 1.008
137 12.011
138 1.008
139 12.011
140 1.008
141 12.011
142 12.011
143 12.011
144 32.06
145 32.06
146 32.06
147 32.06
148 1.008
149 1.008
150 12.011
151 12.011
152 12.011
153 12.011
154 12.011
155 12.011
156 12.011
157 12.011
158 12.011
159 12.011
160 12.011
161 12.011
162 12.011
163 12.011
164 12.011
165 12.011
166 32.06
167 12.011
168 12.011
169 12.011
170 35.453
171 12.011
172 12.011
173 12.011
174 12.011
175 12.011
176 12.011
177 12.011
178 12.011
179 12.011
180 15.999
181 14.007
182 14.007
183 14.007
184 1.008
185 1.008
186 12.011
187 12.011
188 12.011
189 12.011
190 12.011
191 12.011
192 15.999
193 14.007
194 1.008
195 14.007
196 12.011
197 15.999
198 1.008
199 1.008
200 12.011
201 12.011
202 12.011
203 12.011
204 12.011
205 12.011
206 14.007
207 12.011
208 35.453
209 14.007
210 12.011
211 12.011
212 15.999
213 15.999
214 1.008
215 12.011
216 15.999
217 12.011
218 12.011
219 12.011
220 12.011
221 12.011
222 15.999
223 1.008
224 12.011
225 15.999
226 1.008
227 12.011
228 12.011
229 12.011
230 12.011
231 14.007
232 14.007
233 14.007
234 1.008
235 1.008
236 12.011
237 12.011
238 12.011
239 12.011
240 12.011
241 12.011
242 12.011
243 12.011
244 12.011
245 14.007
246 1.008
247 12.011
248 14.007
249 1.008
250 12.011
251 12.011
252 12.011
253 12.011
254 14.007
255 1.008
256 14.007
257 12.011
258 14.007
259 1.008
260 12.011
261 1.008
262 12.011
263 1.008
264 14.007
265 12.011
266 14.007
267 12.011
268 12.011
269 12.011
270 1.008
271 15.999
272 1.008
273 15.999
274 1.008
275 1.008
276 12.011
277 1.008
278 14.007
279 12.011
280 14.007
281 12.011
282 12.011
283 12.011
284 1.008
285 15.999
286 14.007
287 1.008
288 1.008
289 1.008
290 1.008
291 14.007
292 12.011
293 14.007
294 12.011
295 12.011
296 12.011
297 14.007
298 12.011
299 14.007
300 1.008
301 14.007
302 1.008
303 1.008
304 1.008
305 1.008
306 14.007
307 12.011
308 14.007
309 12.011
310 12.011
311 12.011
312 1.008
313 14.007
314 1.008
315 15.999
316 12.011
317 1.008
318 12.011
319 1.008
320 12.011
321 1.008
322 14.007
323 12.011
324 14.007
325 12.011
326 12.011
327 12.011
328 1.008
329 15.999
330 1.008
331 14.007
332 1.008
333 1.008
334 1.008
335 1.008
336 12.011
337 1.008
338 30.974
339 15.999
340 15.999
341 15.035
342 12.011
343 35.453
344 12.011
345 18.998
346 35.453
347 79.904
348 126.905
349 18.039
350 6.941
351 22.99
352 39.098
353 85.468
354 132.905
355 24.305
356 40.08
357 87.62
358 137.33
359 12.011
360 1.008
361 32.06
362 12.011
363 1.008
364 15.999
365 12.011
366 1.008
367 12.011
368 14.007
369 12.011
370 1.008
371 14.007
372 1.008
373 12.011
374 1.008
375 12.011
376 1.008
377 1e-30
378 15.999
379 1.008
380 238.029
381 15.999
382 15.999
383 30.974
384 15.999
385 15.999
386 12.011
387 1.008
388 30.974
389 15.999
390 15.999
391 12.011
392 1.008
393 30.974
394 15.999
395 15.999
396 12.011
397 1.008
398 12.011
399 1.008
400 12.011
401 12.011
402 1.008
403 12.011
404 12.011
405 1.008
406 12.011
407 12.011
408 12.011
409 15.999
410 15.999
411 12.011
412 1.008
413 12.011
414 12.011
415 12.011
416 15.999
417 32.06
418 15.999
419 12.011
420 1.008
421 14.007
422 1.008
423 14.007
424 1.008
425 12.011
426 1.008
427 12.011
428 1.008
429 12.011
430 1.008
431 12.011
432 12.011
433 12.011
434 12.011
435 12.011
436 32.06
437 15.999
438 32.06
439 32.06
440 15.999
441 12.011
442 12.011
443 12.011
444 12.011
445 12.011
446 14.007
447 1.008
448 12.011
449 12.011
450 12.011
451 12.011
452 12.011
453 12.011
454 14.007
455 14.007
456 1.008
457 12.011
458 12.011
459 12.011
460 12.011
461 12.011
462 12.011
463 14.007
464 12.011
465 12.011
466 12.011
467 1.008
468 1.008
469 1.008
470 14.007
471 12.011
472 1.008
473 14.007
474 12.011
475 12.011
476 12.011
477 1.008
478 1.008
479 1.008
480 14.007
481 12.011
482 12.011
483 1.008
484 1.008
485 14.007
486 12.011
487 12.011
488 1.008
489 1.008
490 1.008
491 14.007
492 14.007
493 12.011
494 12.011
495 12.011
496 1.008
497 1.008
498 1.008
499 1.008
500 14.007
501 12.011
502 14.007
503 12.011
504 12.011
505 1.008
506 1.008
507 1.008
508 1.008
509 15.999
510 12.011
511 12.011
512 1.008
513 1.008
514 15.999
515 12.011
516 14.007
517 12.011
518 12.011
519 1.008
520 1.008
521 1.008
522 15.999
523 14.007
524 12.011
525 12.011
526 12.011
527 1.008
528 1.008
529 1.008
530 14.007
531 12.011
532 12.011
533 12.011
534 12.011
535 12.011
536 12.011
537 12.011
538 12.011
539 1.008
540 1.008
541 1.008
542 1.008
543 1.008
544 1.008
545 1.008
546 14.007
547 12.011
548 12.011
549 12.011
550 12.011
551 12.011
552 12.011
553 12.011
554 12.011
555 12.011
556 1.008
557 1.008
558 1.008
559 1.008
560 1.008
561 1.008
562 1.008
563 14.007
564 12.011
565 14.007
566 12.011
567 12.011
568 12.011
569 14.007
570 12.011
571 14.007
572 1.008
573 1.008
574 1.008
575 1.008
576 32.06
577 12.011
578 14.007
579 12.011
580 12.011
581 1.008
582 1.008
583 1.008
584 14.007
585 12.011
586 1.008
587 12.011
588 12.011
589 14.007
590 12.011
591 12.011
592 12.011
593 12.011
594 12.011
595 12.011
596 1.008
597 1.008
598 1.008
599 1.008
600 14.007
601 12.011
602 14.007
603 12.011
604 12.011
605 12.011
606 1.008
607 1.008
608 1.008
609 1.008
610 12.011
611 12.011
612 12.011
613 12.011
614 12.011
615 12.011
616 12.011
617 12.011
618 12.011
619 12.011
620 12.011
621 12.011
622 12.011
623 12.011
624 12.011
625 32.06
626 1.008
627 12.011
628 12.011
629 14.007
630 12.011
631 12.011
632 12.011
633 12.011
634 12.011
635 12.011
636 12.011
637 12.011
638 12.011
639 32.06
640 227.0
641 232.038
642 243.0
643 12.011
644 12.011
645 1.008
646 138.906
647 144.24
648 151.96
649 157.25
650 173.04
651 12.011
652 35.453
653 1.008
654 12.011
655 12.011
656 12.011
657 12.011
658 1.008
659 12.011
660 1.008
661 12.011
662 18.998
663 12.011
664 18.998
665 79.904
666 14.027
667 12.011
668 12.011
669 18.998
670 12.011
671 18.998
672 12.011
673 79.904
674 12.011
675 126.905
676 12.011
677 32.06
678 12.011
679 12.011
680 12.011
681 12.011
682 12.011
683 1.008
684 1.008
685 12.011
686 14.007
687 1.008
688 1.008
689 1.008
690 12.011
691 12.011
692 14.007
693 14.007
694 14.007
695 12.011
696 14.007
697 12.011
698 12.011
699 12.011
700 12.011
701 12.011
702 1.008
703 14.007
704 15.999
705 12.011
706 1.008
707 12.011
708 12.011
709 12.011
710 14.007
711 12.011
712 12.011
713 14.007
714 15.999
715 12.011
716 15.999
717 12.011
718 12.011
719 12.011
720 1.008
721 1.008
722 1.008
723 15.999
724 30.974
725 12.011
726 12.011
727 1.008
728 30.974
729 18.998
730 14.007
731 15.999
732 14.007
733 14.007
734 14.007
735 12.011
736 12.011
737 12.011
738 12.011
739 12.011
740 12.011
741 1.008
742 1.008
743 1.008
744 12.011
745 12.011
746 12.011
747 12.011
748 12.011
749 12.011
750 12.011
751 12.011
752 12.011
753 12.011
754 12.011
755 12.011
756 12.011
757 12.011
758 1.008
759 12.011
760 12.011
761 12.011
762 1.008
763 12.011
764 12.011
765 12.011
766 15.999
767 1.008
768 14.007
769 14.007
770 14.007
771 12.011
772 14.007
773 1.008
774 12.011
775 12.011
776 12.011
777 12.011
778 12.011
779 12.011
780 12.011
781 12.011
782 1.008
783 12.011
784 12.011
785 14.007
786 15.999
787 1.008
788 18.998
789 12.011
790 1.008
791 12.011
792 12.011
793 12.011
794 12.011
795 12.011
796 12.011
797 18.998
798 12.011
799 1.008
800 12.011
801 12.011
802 35.453
803 12.011
804 1.008
805 12.011
806 12.011
807 79.904
808 12.011
809 1.008
810 12.011
811 12.011
812 18.998
813 35.453
814 79.904
815 12.011
816 15.999
817 12.011
818 18.998
819 14.007
820 12.011
821 12.011
822 12.011
823 12.011
824 15.999
825 14.007
826 1.008
827 15.999
828 1.008
829 12.011
830 12.011
831 12.011
832 12.011
833 12.011
834 12.011
835 12.011
836 1e-30
837 12.011
838 12.011
839 12.011
840 126.905
841 1.008
842 14.007
843 12.011
844 12.011
845 14.007
846 12.011
847 12.011
848 15.999
849 14.007
850 12.011
851 12.011
852 12.011
853 12.011
854 1.008
855 12.011
856 15.999
857 1.008
858 12.011
859 12.011
860 12.011
861 12.011
862 12.011
863 12.011
864 12.011
865 12.011
866 12.011
867 12.011
868 28.086
869 28.086
870 28.086
871 28.086
872 1.008
873 12.011
874 12.011
875 12.011
876 12.011
877 18.998
878 35.453
879 79.904
880 126.905
881 6.941
882 22.99
883 39.098
884 85.468
885 132.905
886 24.305
887 40.08
888 87.62
889 137.33
890 12.011
891 12.011
892 12.011
893 12.011
894 1.008
895 14.007
896 12.011
897 14.007
898 12.011
899 12.011
900 12.011
901 1.008
902 12.011
903 12.011
904 12.011
905 12.011
906 12.011
907 15.999
908 12.011

Atoms

1 1 1 -0.8476 36.351631 35.218348 17.028257
2 1 2 0.4238 36.847421 34.657737 16.365001
3 1 2 0.4238 35.789865 35.889069 16.543951
4 2 1 -0.8476 29.138711 6.319546 42.016471
5 2 2 0.4238 28.255752 6.363840 42.483827
6 2 2 0.4238 29.397290 7.233990 41.705140
7 3 1 -0.8476 10.021992 14.056015 20.067436
8 3 2 0.4238 10.403591 14.362907 20.939330
9 3 2 0.4238 9.889382 13.065150 20.091956
10 4 1 -0.8476 6.008292 34.398038 47.939859
11 4 2 0.4238 6.205424 35.351585 47.712070
12 4 2 0.4238 6.866768 33.895744 48.043399
13 5 1 -0.8476 19.311617 46.090843 32.533277
14 5 2 0.4238 19.877286 45.279712 32.681890
15 5 2 0.4238 19.759446 46.692974 31.872303
16 6 1 -0.8476 23.166141 10.194297 29.160058
17 6 2 0.4238 23.533938 9.409598 29.659030
18 6 2 0.4238 23.833523 10.500085 28.481018
19 7 1 -0.8476 36.140687 2.725598 33.325118
20 7 2 0.4238 35.263499 2.642222 32.852265
21 7 2 0.4238 36.652727 3.495562 32.944369
22 8 1 -0.8476 47.816265 25.479178 47.423839
23 8 2 0.4238 48.007331 25.714460 46.470877
24 8 2 0.4238 47.979526 26.277549 48.003451
25 9 1 -0.8476 35.158465 38.612466 10.061363
26 9 2 0.4238 35.483754 39.112111 9.258529
27 9 2 0.4238 34.797288 37.724252 9.777412
28 10 1 -0.8476 -0.029001 38.604818 19.935941
29 10 2 0.4238 0.082062 39.400612 20.531236
30 10 2 0.4238 -0.079344 37.776071 20.493295
31 11 1 -0.8476 23.607587 13.492884 33.958320
32 11 2 0.4238 24.163630 14.290639 33.725077
33 11 2 0.4238 23.155552 13.647017 34.836903
34 12 1 -0.8476 34.333109 0.181879 47.112520
35 12 2 0.4238 35.314758 -0.003413 47.157602
36 12 2 0.4238 33.917405 -0.005048 48.002603
37 13 1 -0.8476 31.956214 47.165767 17.074562
38 13 2 0.4238 32.478039 48.000855 17.248710
39 13 2 0.4238 31.024637 47.276543 17.420819
40 14 1 -0.8476 21.091570 22.555531 6.221497
41 14 2 0.4238 20.856989 22.559629 5.249410
42 14 2 0.4238 20.593911 21.820108 6.681375
43 15 1 -0.8476 38.065294 33.665580 42.552902
44 15 2 0.4238 37.655055 33.910184 43.431465
45 15 2 0.4238 38.636728 34.420145 42.230264
46 16 1 -0.8476 32.702542 2.486106 0.987446
47 16 2 0.4238 31.887566 3.016049 1.221912
48 16 2 0.4238 33.255312 2.343934 1.808563
49 17 1 -0.8476 16.985623 -0.011717 16.931548
50 17 2 0.4238 16.390076 0.741454 17.210937
51 17 2 0.4238 17.371981 0.185474 16.030524
52 18 1 -0.8476 43.401370 34.349043 35.736169
53 18 2 0.4238 44.311615 34.485783 36.127010
54 18 2 0.4238 43.408815 33.539413 35.149276
55 19 1 -0.8476 27.546804 39.376274 18.305171
56 19 2 0.4238 28.411837 39.340654 18.805619
57 19 2 0.4238 26.791502 39.181065 18.930800
58 20 1 -0.8476 23.595729 38.648959 34.761541
59 20 2 0.4238 22.756106 38.386525 35.237107
60 20 2 0.4238 23.876779 39.561008 35.060167
61 21 1 -0.8476 4.039810 14.546266 22.603228
62 21 2 0.4238 3.762305 13.752843 22.061499
63 21 2 0.4238 4.887152 14.924506 22.230472
64 22 1 -0.8476 32.359820 13.722219 -0.017205
65 22 2 0.4238 33.318367 13.453936 0.078771
66 22 2 0.4238 31.897180 13.626969 0.864210
67 23 1 -0.8476 28.539092 27.512393 31.079443
68 23 2 0.4238 28.044580 26.847738 30.519361
69 23 2 0.4238 29.194415 28.007218 30.508742
70 24 1 -0.8476 45.260057 34.807136 0.849319
71 24 2 0.4238 45.238427 33.807534 0.831202
72 24 2 0.4238 44.558473 35.166911 0.234223
73 25 1 -0.8476 35.214897 31.263196 36.878767
74 25 2 0.4238 34.674915 31.336865 36.040320
75 25 2 0.4238 36.140733 30.959830 36.653385
76 26 1 -0.8476 1.759867 41.243636 0.447234
77 26 2 0.4238 1.162311 41.905894 -0.004808
78 26 2 0.4238 2.651049 41.234862 -0.006327
79 27 1 -0.8476 3.584252 30.381566 33.189243
80 27 2 0.4238 4.108014 30.520575 34.029689
81 27 2 0.4238 2.941807 29.626123 33.317970
82 28 1 -0.8476 38.119381 47.160295 21.185354
83 28 2 0.4238 37.580985 47.924045 20.829243
84 28 2 0.4238 39.056166 47.464702 21.357894
85 29 1 -0.8476 22.518265 17.017140 27.673699
86 29 2 0.4238 22.191655 16.272579 28.255898
87 29 2 0.4238 21.771461 17.660403 27.504893
88 30 1 -0.8476 29.284737 19.367411 46.384123
89 30 2 0.4238 29.925843 18.838810 46.940508
90 30 2 0.4238 29.422240 19.148060 45.418216
91 31 1 -0.8476 33.798175 18.686290 27.024457
92 31 2 0.4238 34.559688 19.333030 27.067180
93 31 2 0.4238 33.344404 18.763857 26.136722
94 32 1 -0.8476 36.567368 6.493165 18.684338
95 32 2 0.4238 37.204395 7.203993 18.982532
96 32 2 0.4238 36.448626 6.546601 17.692852
97 33 1 -0.8476 31.840412 26.917000 16.867884
98 33 2 0.4238 31.354403 27.789261 16.813527
99 33 2 0.4238 31.312359 26.275315 17.424122
100 34 1 -0.8476 1.355324 2.850996 23.873451
101 34 2 0.4238 0.743936 2.894037 24.663610
102 34 2 0.4238 2.298182 2.738996 24.187260
103 35 1 -0.8476 0.381454 46.876082 27.167473
104 35 2 0.4238 -0.002112 46.249888 27.846265
105 35 2 0.4238 1.124860 47.401555 27.581268
106 36 1 -0.8476 46.501040 40.431673 22.799665
107 36 2 0.4238 46.546386 39.432833 22.815826
108 36 2 0.4238 46.733891 40.790569 23.703531
109 37 1 -0.8476 19.738740 0.587720 45.433547
110 37 2 0.4238 18.954007 -0.003123 45.246199
111 37 2 0.4238 19.655700 0.970372 46.353700
112 38 1 -0.8476 36.448897 22.579037 27.951196
113 38 2 0.4238 36.653729 23.557817 27.945432
114 38 2 0.4238 35.467642 22.443044 27.814653
115 39 1 -0.8476 19.369522 22.751594 40.743048
116 39 2 0.4238 19.781832 23.445889 40.153170
117 39 2 0.4238 19.961352 22.591201 41.532992
118 40 1 -0.8476 20.348204 28.275338 25.735442
119 40 2 0.4238 19.580248 28.740916 25.295576
120 40 2 0.4238 20.013159 27.472142 26.228007
121 41 1 -0.8476 33.406464 20.012822 47.424054
122 41 2 0.4238 33.017462 19.294393 48.000715
123 41 2 0.4238 33.795124 20.730313 48.002110
124 42 1 -0.8476 29.472249 32.608428 48.007016
125 42 2 0.4238 29.348677 33.600750 48.001815
126 42 2 0.4238 28.578379 32.161403 48.041154
127 43 1 -0.8476 30.007427 37.797672 29.116948
128 43 2 0.4238 30.953406 38.006204 28.868678
129 43 2 0.4238 29.631539 38.549468 29.658715
130 44 1 -0.8476 34.651247 8.324283 22.331337
131 44 2 0.4238 34.329049 9.269104 22.390521
132 44 2 0.4238 34.032436 7.796951 21.749105
133 45 1 -0.8476 23.682698 5.905815 28.930004
134 45 2 0.4238 24.638355 6.194943 28.985896
135 45 2 0.4238 23.624336 4.918002 29.074292
136 46 1 -0.8476 8.670336 15.331346 25.132589
137 46 2 0.4238 7.732474 15.351995 25.478981
138 46 2 0.4238 9.266519 14.900739 25.810190
139 47 1 -0.8476 45.360790 26.002560 -0.002276
140 47 2 0.4238 45.145898 26.979198 -0.001571
141 47 2 0.4238 44.511631 25.474430 0.000215
142 48 1 -0.8476 25.011772 22.655995 22.739906
143 48 2 0.4238 25.244257 23.313195 22.022941
144 48 2 0.4238 24.604709 21.841605 22.326302
145 49 1 -0.8476 41.525104 22.889267 0.017833
146 49 2 0.4238 42.485583 22.739796 0.252647
147 49 2 0.4238 41.337266 23.871119 -0.008317
148 50 1 -0.8476 14.565539 2.621490 4.867884
149 50 2 0.4238 15.403466 2.577039 4.323915
150 50 2 0.4238 13.771681 2.567254 4.262205
151 51 1 -0.8476 5.536917 22.775754 34.363496
152 51 2 0.4238 5.571097 23.617708 33.825031
153 51 2 0.4238 5.880842 22.955352 35.285158
154 52 1 -0.8476 4.905602 45.651526 4.896896
155 52 2 0.4238 4.195104 45.239916 5.467659
156 52 2 0.4238 4.520938 46.423442 4.390753
157 53 1 -0.8476 7.004420 24.609873 29.657566
158 53 2 0.4238 7.847394 24.649384 30.194068
159 53 2 0.4238 7.195490 24.886313 28.715720
160 54 1 -0.8476 32.136220 8.859103 40.824775
161 54 2 0.4238 32.306255 7.997060 40.347313
162 54 2 0.4238 33.004994 9.245737 41.134203
163 55 1 -0.8476 4.272470 47.607560 33.141890
164 55 2 0.4238 5.119806 48.008232 32.793346
165 55 2 0.4238 4.053115 48.011944 34.029785
166 56 1 -0.8476 26.215329 16.223232 18.628005
167 56 2 0.4238 25.944942 15.406558 19.137843
168 56 2 0.4238 27.171687 16.139893 18.347943
169 57 1 -0.8476 41.920442 6.169179 0.879973
170 57 2 0.4238 42.233320 5.223298 0.793856
171 57 2 0.4238 42.017371 6.633763 -0.000235
172 58 1 -0.8476 13.431841 18.742726 21.287878
173 58 2 0.4238 13.487782 18.884678 20.299587
174 58 2 0.4238 14.095602 18.047141 21.562802
175 59 1 -0.8476 29.094443 1.211694 9.012828
176 59 2 0.4238 28.510960 1.723396 9.643469
177 59 2 0.4238 29.096106 0.245317 9.269954
178 60 1 -0.8476 5.443912 35.636662 30.682994
179 60 2 0.4238 6.051504 34.858289 30.841002
180 60 2 0.4238 4.918074 35.484532 29.846124
181 61 1 -0.8476 38.436534 27.485972 33.898223
182 61 2 0.4238 38.198973 27.092777 33.009988
183 61 2 0.4238 37.805236 27.143362 34.593982
184 62 1 -0.8476 30.639402 23.459124 23.479482
185 62 2 0.4238 29.776082 23.430782 22.975622
186 62 2 0.4238 30.452617 23.582541 24.454099
187 63 1 -0.8476 37.701641 13.634692 4.179495
188 63 2 0.4238 37.721414 12.805613 4.738277
189 63 2 0.4238 37.232979 13.444176 3.316906
190 64 1 -0.8476 16.724457 26.273490 31.675611
191 64 2 0.4238 17.182050 27.090643 32.026137
192 64 2 0.4238 15.790906 26.235476 32.032036
193 65 1 -0.8476 19.606043 7.366650 35.654376
194 65 2 0.4238 19.463470 8.341599 35.483649
195 65 2 0.4238 18.748620 6.952993 35.960502
196 66 1 -0.8476 46.814230 5.535862 29.274835
197 66 2 0.4238 47.496406 4.962826 28.820670
198 66 2 0.4238 46.468489 6.217236 28.629705
199 67 1 -0.8476 3.205255 35.859544 0.608128
200 67 2 0.4238 3.983205 35.934113 -0.015757
201 67 2 0.4238 2.857168 34.922157 0.596297
202 68 1 -0.8476 47.449574 40.794377 19.487075
203 68 2 0.4238 48.003774 40.063248 19.884962
204 68 2 0.4238 48.002595 41.623197 19.402070
205 69 1 -0.8476 26.750289 38.009764 7.307471
206 69 2 0.4238 27.627497 38.145247 6.846872
207 69 2 0.4238 26.385647 37.108961 7.071697
208 70 1 -0.8476 14.387289 28.019516 25.467204
209 70 2 0.4238 14.849527 27.170161 25.212387
210 70 2 0.4238 14.762009 28.776484 24.931869
211 71 1 -0.8476 5.602163 6.867103 5.611929
212 71 2 0.4238 5.247320 7.626896 5.067136
213 71 2 0.4238 5.113807 6.028151 5.371788
214 72 1 -0.8476 34.247712 28.118273 21.822535
215 72 2 0.4238 33.678168 28.738629 21.283297
216 72 2 0.4238 34.808258 27.562200 21.208881
217 73 1 -0.8476 47.014575 10.393567 17.893638
218 73 2 0.4238 47.999946 10.267842 17.778583
219 73 2 0.4238 46.723818 9.977438 18.755205
220 74 1 -0.8476 34.191654 34.314319 9.369114
221 74 2 0.4238 34.158433 33.466431 8.839980
222 74 2 0.4238 33.843973 34.145488 10.291401
223 75 1 -0.8476 46.868921 0.076310 7.657836
224 75 2 0.4238 46.338483 -0.000919 6.813637
225 75 2 0.4238 47.843353 -0.003112 7.447662
226 76 1 -0.8476 40.291888 29.927475 18.764488
227 76 2 0.4238 41.162865 29.449270 18.651708
228 76 2 0.4238 39.686914 29.702771 18.000606
229 77 1 -0.8476 27.214382 23.297552 36.237046
230 77 2 0.4238 28.042752 23.757085 36.557409
231 77 2 0.4238 27.244368 23.212476 35.241123
232 78 1 -0.8476 15.370601 43.810118 15.198803
233 78 2 0.4238 15.667652 43.876214 16.151375
234 78 2 0.4238 14.673795 44.504222 15.018026
235 79 1 -0.8476 23.829032 24.237955 40.956620
236 79 2 0.4238 24.428422 23.915871 41.689419
237 79 2 0.4238 22.874593 24.110306 41.226345
238 80 1 -0.8476 23.111737 0.703367 5.276964
239 80 2 0.4238 23.791594 -0.002371 5.077644
240 80 2 0.4238 22.825007 0.629675 6.232137
241 81 1 -0.8476 4.507691 32.965565 16.036020
242 81 2 0.4238 4.837930 33.399297 15.197677
243 81 2 0.4238 3.678659 32.443085 15.836719
244 82 1 -0.8476 9.353733 7.906903 17.214929
245 82 2 0.4238 9.526109 7.484579 16.325026
246 82 2 0.4238 8.851690 7.266490 17.796155
247 83 1 -0.8476 25.071516 16.074601 11.116644
248 83 2 0.4238 25.881768 16.203096 11.688466
249 83 2 0.4238 24.268974 15.947365 11.699514
250 84 1 -0.8476 19.653236 9.406041 23.862339
251 84 2 0.4238 19.460496 10.146120 23.218029
252 84 2 0.4238 19.432439 8.528179 23.437360
253 85 1 -0.8476 41.768665 2.024751 38.909090
254 85 2 0.4238 41.747171 2.695262 38.167501
255 85 2 0.4238 40.892882 1.543698 38.948985
256 86 1 -0.8476 7.296465 31.283975 36.465799
257 86 2 0.4238 7.294589 31.232717 35.467115
258 86 2 0.4238 8.039111 30.720114 36.827097
259 87 1 -0.8476 5.901356 18.991567 19.452246
260 87 2 0.4238 5.694484 19.357243 20.359707
261 87 2 0.4238 5.495449 18.082447 19.358754
262 88 1 -0.8476 10.456936 23.945885 13.201344
263 88 2 0.4238 10.872877 23.088326 13.503973
264 88 2 0.4238 11.099743 24.439673 12.615706
265 89 1 -0.8476 -0.000180 23.238310 16.640366
266 89 2 0.4238 0.705954 22.585705 16.915104
267 89 2 0.4238 -0.019241 24.000725 17.287175
268 90 1 -0.8476 35.042546 19.336363 2.293995
269 90 2 0.4238 35.771725 18.653730 2.342061
270 90 2 0.4238 35.241131 20.081586 2.930553
271 91 1 -0.8476 10.189472 21.145748 10.556467
272 91 2 0.4238 10.331146 22.122499 10.395578
273 91 2 0.4238 9.287071 21.002320 10.962792
274 92 1 -0.8476 18.864254 41.664038 44.890654
275 92 2 0.4238 19.288096 41.102774 44.179781
276 92 2 0.4238 18.060697 42.126191 44.515540
277 93 1 -0.8476 29.345288 29.006965 27.035118
278 93 2 0.4238 28.531396 28.443529 27.176962
279 93 2 0.4238 29.360723 29.745836 27.708787
280 94 1 -0.8476 47.870856 21.579589 18.416766
281 94 2 0.4238 47.019009 21.334461 18.879657
282 94 2 0.4238 48.000228 22.570268 18.459400
283 95 1 -0.8476 23.738683 4.471313 7.148253
284 95 2 0.4238 23.880811 3.746651 6.473965
285 95 2 0.4238 23.249844 5.232294 6.721702
286 96 1 -0.8476 15.552918 43.192376 41.863795
287 96 2 0.4238 15.189232 43.520942 40.992143
288 96 2 0.4238 16.438290 42.753234 41.711245
289 97 1 -0.8476 26.896021 8.404390 32.931623
290 97 2 0.4238 27.728018 8.433901 32.377628
291 97 2 0.4238 27.027496 7.774600 33.697180
292 98 1 -0.8476 34.950724 45.820985 28.121230
293 98 2 0.4238 35.288162 46.707174 27.803734
294 98 2 0.4238 34.149297 45.557638 27.584235
295 99 1 -0.8476 4.190569 26.223543 39.575702
296 99 2 0.4238 4.784110 26.994957 39.346288
297 99 2 0.4238 3.940456 25.735260 38.739627
298 100 1 -0.8476 33.928684 15.702403 24.020569
299 100 2 0.4238 33.104028 15.875408 24.559098
300 100 2 0.4238 34.490162 16.529522 23.995720
301 101 1 -0.8476 36.302205 32.570215 11.829451
302 101 2 0.4238 36.422284 31.862577 11.133154
303 101 2 0.4238 37.186395 32.781180 12.246227
304 102 1 -0.8476 46.655383 14.725646 39.871767
305 102 2 0.4238 46.252101 13.811183 39.838276
306 102 2 0.4238 47.541137 14.682589 40.333920
307 103 1 -0.8476 0.802026 34.032932 4.225081
308 103 2 0.4238 1.455430 34.307617 3.519664
309 103 2 0.4238 -0.013933 33.649453 3.792467
310 104 1 -0.8476 44.129992 0.345573 36.283129
311 104 2 0.4238 43.412942 -0.000553 36.888138
312 104 2 0.4238 44.805516 0.849674 36.821227
313 105 1 -0.8476 46.848370 22.659232 45.079566
314 105 2 0.4238 47.126082 23.318008 44.380359
315 105 2 0.4238 46.177247 23.082317 45.688330
316 106 1 -0.8476 46.609191 24.363930 34.615715
317 106 2 0.4238 46.476473 25.184872 34.060342
318 106 2 0.4238 47.558619 24.321909 34.926875
319 107 1 -0.8476 47.662760 22.370809 31.752534
320 107 2 0.4238 48.005830 23.307790 31.818633
321 107 2 0.4238 48.004728 21.835390 32.524793
322 108 1 -0.8476 14.333414 0.380552 32.109584
323 108 2 0.4238 15.255140 0.546704 32.460035
324 108 2 0.4238 13.766210 -0.009214 32.835092
325 109 1 -0.8476 7.741896 13.798385 17.695829
326 109 2 0.4238 8.095279 13.282213 16.915645
327 109 2 0.4238 7.926200 14.772141 17.562294
328 110 1 -0.8476 27.334910 33.551892 45.319499
329 110 2 0.4238 27.713349 34.476328 45.272570
330 110 2 0.4238 27.967755 32.910264 44.886116
331 111 1 -0.8476 2.879293 0.397058 37.771128
332 111 2 0.4238 3.768826 -0.001620 37.994258
333 111 2 0.4238 2.335982 0.487967 38.605723
334 112 1 -0.8476 16.542125 22.140647 14.813139
335 112 2 0.4238 17.520281 22.319367 14.919300
336 112 2 0.4238 16.276183 21.379663 15.404897
337 113 1 -0.8476 42.396337 7.825846 39.276890
338 113 2 0.4238 41.897758 6.975273 39.109724
339 113 2 0.4238 43.086908 7.673950 39.984024
340 114 1 -0.8476 7.669963 41.457714 1.937218
341 114 2 0.4238 8.385554 40.989258 2.455366
342 114 2 0.4238 6.888035 41.635612 2.534664
343 115 1 -0.8476 35.860520 18.623666 30.203613
344 115 2 0.4238 35.835026 19.617600 30.096637
345 115 2 0.4238 35.672035 18.386042 31.156508
346 116 1 -0.8476 31.440040 31.424786 25.222731
347 116 2 0.4238 31.914721 30.826775 24.576929
348 116 2 0.4238 30.456384 31.392703 25.045550
349 117 1 -0.8476 36.154330 4.466862 14.089564
350 117 2 0.4238 36.965389 4.408174 13.507551
351 117 2 0.4238 36.205396 5.293438 14.650067
352 118 1 -0.8476 34.932205 21.273144 36.090278
353 118 2 0.4238 35.103317 21.791229 35.252240
354 118 2 0.4238 33.946541 21.165542 36.220233
355 119 1 -0.8476 32.021667 43.208089 18.841054
356 119 2 0.4238 31.867147 44.195397 18.877731
357 119 2 0.4238 32.969277 43.009503 19.091250
358 120 1 -0.8476 19.797923 23.730944 1.757744
359 120 2 0.4238 20.360737 22.930343 1.963360
360 120 2 0.4238 19.378137 24.068544 2.600243
361 121 1 -0.8476 25.717389 19.782031 35.914350
362 121 2 0.4238 25.251143 20.666579 35.900586
363 121 2 0.4238 26.500159 19.827470 36.535000
364 122 1 -0.8476 36.819642 36.843777 12.378936
365 122 2 0.4238 36.591305 36.606408 13.323138
366 122 2 0.4238 36.767318 36.024869 11.807401
367 123 1 -0.8476 20.531263 41.930538 15.925860
368 123 2 0.4238 19.821878 41.431801 16.423891
369 123 2 0.4238 20.361420 41.858954 14.942992
370 124 1 -0.8476 23.168586 47.997723 18.909558
371 124 2 0.4238 24.168364 48.012295 18.894312
372 124 2 0.4238 22.849502 48.007878 19.857230
373 125 1 -0.8476 42.516990 12.600924 46.557289
374 125 2 0.4238 42.926169 12.486457 45.652043
375 125 2 0.4238 43.012881 12.040371 47.220518
376 126 1 -0.8476 10.532303 37.783073 3.507514
377 126 2 0.4238 9.624420 37.436749 3.271278
378 126 2 0.4238 10.660367 38.687453 3.100455
379 127 1 -0.8476 31.768314 16.595209 40.743887
380 127 2 0.4238 31.244000 16.436333 39.907314
381 127 2 0.4238 32.657061 16.989678 40.510385
382 128 1 -0.8476 37.540117 24.218358 24.836103
383 128 2 0.4238 38.373495 23.779369 24.500289
384 128 2 0.4238 36.996975 24.539876 24.060459
385 129 1 -0.8476 11.253612 21.288044 38.471621
386 129 2 0.4238 11.649037 21.605497 37.609726
387 129 2 0.4238 10.583281 20.569531 38.286161
388 130 1 -0.8476 6.118162 39.786078 42.425298
389 130 2 0.4238 5.310229 39.633368 42.994442
390 130 2 0.4238 5.836561 40.150687 41.537739
391 131 1 -0.8476 13.025280 42.916382 18.154752
392 131 2 0.4238 12.908928 43.525033 18.939612
393 131 2 0.4238 12.635438 43.345148 17.339778
394 132 1 -0.8476 47.501425 38.053514 13.060231
395 132 2 0.4238 47.163019 37.229645 13.514898
396 132 2 0.4238 47.714284 38.749252 13.746263
397 133 1 -0.8476 19.813812 37.129231 -0.010250
398 133 2 0.4238 19.530827 36.172680 0.059953
399 133 2 0.4238 19.020334 37.722415 0.125860
400 134 1 -0.8476 19.366694 13.956381 30.646669
401 134 2 0.4238 19.942907 14.511039 30.046391
402 134 2 0.4238 18.626268 14.520363 31.012311
403 135 1 -0.8476 19.039870 33.816647 2.390899
404 135 2 0.4238 19.142102 33.334813 3.261177
405 135 2 0.4238 18.140069 34.251410 2.354310
406 136 1 -0.8476 14.064390 31.259045 5.174792
407 136 2 0.4238 13.643756 30.466796 4.732741
408 136 2 0.4238 13.391003 31.710729 5.760055
409 137 1 -0.8476 3.079219 36.376464 47.455911
410 137 2 0.4238 3.228511 37.191389 48.015919
411 137 2 0.4238 2.931800 35.585959 48.050361
412 138 1 -0.8476 13.886387 48.015896 24.748972
413 138 2 0.4238 14.633647 47.971094 25.411991
414 138 2 0.4238 13.010904 48.001759 25.232015
415 139 1 -0.8476 34.288438 44.815698 0.805573
416 139 2 0.4238 34.251479 43.939813 1.286675
417 139 2 0.4238 33.702449 44.776404 -0.003793
418 140 1 -0.8476 7.802320 8.630665 32.378692
419 140 2 0.4238 7.515340 7.998143 33.098107
420 140 2 0.4238 7.835243 9.560252 32.745822
421 141 1 -0.8476 29.915036 17.383994 7.350749
422 141 2 0.4238 30.752356 16.969577 6.994162
423 141 2 0.4238 29.281883 17.557986 6.596532
424 142 1 -0.8476 16.893577 3.626648 7.569657
425 142 2 0.4238 16.277436 3.024907 8.077868
426 142 2 0.4238 17.420324 4.183565 8.211826
427 143 1 -0.8476 35.083913 41.834250 21.837905
428 143 2 0.4238 35.923215 41.300425 21.940876
429 143 2 0.4238 35.299146 42.716115 21.418395
430 144 1 -0.8476 39.312507 37.760758 14.788987
431 144 2 0.4238 38.634419 38.097342 15.442368
432 144 2 0.4238 40.150097 37.512875 15.275809
433 145 1 -0.8476 3.591672 20.230703 33.039681
434 145 2 0.4238 2.918788 20.660556 33.641722
435 145 2 0.4238 4.312114 19.810419 33.591338
436 146 1 -0.8476 3.088689 31.849793 30.275898
437 146 2 0.4238 3.840740 32.419809 30.606804
438 146 2 0.4238 2.280134 32.418811 30.126042
439 147 1 -0.8476 31.971956 35.700312 20.533350